 Entering Gaussian System, Link 0=/usr1/jkzhou/ycliu2/bin/fluxbrane_g09/g09/g09
 Input=heme_2his_oo.gjf
 Output=heme_2his_oo.log
 Initial command:
 /usr1/jkzhou/ycliu2/bin/fluxbrane_g09/g09/l1.exe /usrtmp/Gau-944.inp -scrdir=/usrtmp/
 Entering Link 1 = /usr1/jkzhou/ycliu2/bin/fluxbrane_g09/g09/l1.exe PID=       945.
  
 Copyright (c) 1988,1990,1992,1993,1995,1998,2003,2009, Gaussian, Inc.
                  All Rights Reserved.
  
 This is part of the Gaussian(R) 09 program.  It is based on
 the Gaussian(R) 03 system (copyright 2003, Gaussian, Inc.),
 the Gaussian(R) 98 system (copyright 1998, Gaussian, Inc.),
 the Gaussian(R) 94 system (copyright 1995, Gaussian, Inc.),
 the Gaussian 92(TM) system (copyright 1992, Gaussian, Inc.),
 the Gaussian 90(TM) system (copyright 1990, Gaussian, Inc.),
 the Gaussian 88(TM) system (copyright 1988, Gaussian, Inc.),
 the Gaussian 86(TM) system (copyright 1986, Carnegie Mellon
 University), and the Gaussian 82(TM) system (copyright 1983,
 Carnegie Mellon University). Gaussian is a federally registered
 trademark of Gaussian, Inc.
  
 This software contains proprietary and confidential information,
 including trade secrets, belonging to Gaussian, Inc.
  
 This software is provided under written license and may be
 used, copied, transmitted, or stored only in accord with that
 written license.
  
 The following legend is applicable only to US Government
 contracts under FAR:
  
                    RESTRICTED RIGHTS LEGEND
  
 Use, reproduction and disclosure by the US Government is
 subject to restrictions as set forth in subparagraphs (a)
 and (c) of the Commercial Computer Software - Restricted
 Rights clause in FAR 52.227-19.
  
 Gaussian, Inc.
 340 Quinnipiac St., Bldg. 40, Wallingford CT 06492
  
  
 ---------------------------------------------------------------
 Warning -- This program may not be used in any manner that
 competes with the business of Gaussian, Inc. or will provide
 assistance to any competitor of Gaussian, Inc.  The licensee
 of this program is prohibited from giving any competitor of
 Gaussian, Inc. access to this program.  By using this program,
 the user acknowledges that Gaussian, Inc. is engaged in the
 business of creating and licensing software in the field of
 computational chemistry and represents and warrants to the
 licensee that it is not a competitor of Gaussian, Inc. and that
 it will not use this program in any manner prohibited above.
 ---------------------------------------------------------------
  

 Cite this work as:
 Gaussian 09, Revision A.02,
 M. J. Frisch, G. W. Trucks, H. B. Schlegel, G. E. Scuseria, 
 M. A. Robb, J. R. Cheeseman, G. Scalmani, V. Barone, B. Mennucci, 
 G. A. Petersson, H. Nakatsuji, M. Caricato, X. Li, H. P. Hratchian, 
 A. F. Izmaylov, J. Bloino, G. Zheng, J. L. Sonnenberg, M. Hada, 
 M. Ehara, K. Toyota, R. Fukuda, J. Hasegawa, M. Ishida, T. Nakajima, 
 Y. Honda, O. Kitao, H. Nakai, T. Vreven, J. A. Montgomery, Jr., 
 J. E. Peralta, F. Ogliaro, M. Bearpark, J. J. Heyd, E. Brothers, 
 K. N. Kudin, V. N. Staroverov, R. Kobayashi, J. Normand, 
 K. Raghavachari, A. Rendell, J. C. Burant, S. S. Iyengar, J. Tomasi, 
 M. Cossi, N. Rega, J. M. Millam, M. Klene, J. E. Knox, J. B. Cross, 
 V. Bakken, C. Adamo, J. Jaramillo, R. Gomperts, R. E. Stratmann, 
 O. Yazyev, A. J. Austin, R. Cammi, C. Pomelli, J. W. Ochterski, 
 R. L. Martin, K. Morokuma, V. G. Zakrzewski, G. A. Voth, 
 P. Salvador, J. J. Dannenberg, S. Dapprich, A. D. Daniels, 
 O. Farkas, J. B. Foresman, J. V. Ortiz, J. Cioslowski, 
 and D. J. Fox, Gaussian, Inc., Wallingford CT, 2009.
 
 ******************************************
 Gaussian 09:  EM64T-G09RevA.02 11-Jun-2009
                28-Nov-2015 
 ******************************************
 %mem=30GB
 %nprocshared=12
 Will use up to   12 processors via shared memory.
 %chk=heme_2his_oo.chk
 ----------------------------------------------------------------------
 #p opt=(modredundant,maxcycle=500) b3lyp/genecp nosymm scf=(qc,conver=
 6,novaracc) geom=connectivity int=ultrafine
 ----------------------------------------------------------------------
 1/6=500,14=-1,18=120,19=15,26=3,38=1,57=2/1,3;
 2/9=110,12=2,15=1,17=6,18=5,40=1/2;
 3/5=7,11=2,16=1,17=8,25=1,30=1,71=1,74=-5,75=-5/1,2,3;
 4//1;
 5/5=2,6=6,8=3,38=1/8;
 6/7=2,8=2,9=2,10=2,28=1/1;
 7/30=1/1,2,3,16;
 1/6=500,14=-1,18=20,19=15/3(2);
 2/9=110,15=1/2;
 99//99;
 2/9=110,15=1/2;
 3/5=7,6=1,11=2,16=1,17=8,25=1,30=1,71=1,74=-5,75=-5,82=7/1,2,3;
 4/5=5,16=3/1;
 5/5=2,6=6,8=3,38=1/8;
 7/30=1/1,2,3,16;
 1/6=500,14=-1,18=20,19=15/3(-5);
 2/9=110,15=1/2;
 6/7=2,8=2,9=2,10=2,19=2,28=1/1;
 99/9=1/99;
 Leave Link    1 at Sat Nov 28 18:28:04 2015, MaxMem= 4026531840 cpu:       0.0
 (Enter /usr1/jkzhou/ycliu2/bin/fluxbrane_g09/g09/l101.exe)
 ------------
 heme_2his_oo
 ------------
 Symbolic Z-matrix:
 Charge =  0 Multiplicity = 1
 C                     2.3438   -2.63282   0.06468 
 C                     2.33421   2.14177   0.70991 
 C                    -2.4759    2.16811   0.36409 
 C                    -2.46711  -2.60104  -0.29533 
 C                     2.76418  -1.32603   0.28935 
 C                     4.15738  -0.92632   0.41084 
 C                     4.15206   0.42938   0.59965 
 C                     2.75881   0.83271   0.57248 
 C                     5.31611   1.35713   0.78225 
 C                     5.33577  -1.83153   0.20402 
 C                     5.61978  -2.02788  -1.29474 
 C                     6.75431  -2.98167  -1.56851 
 O                     7.01637  -3.08108  -2.89659 
 O                     7.37828  -3.60609  -0.73745 
 C                     1.011     2.55539   0.66304 
 C                     0.61303   3.93764   0.82828 
 C                    -0.75204   3.96238   0.69946 
 C                    -1.15781   2.57173   0.49679 
 C                     1.54988   5.08685   1.0474 
 C                    -1.5968    5.15535   0.75418 
 C                    -2.68797   5.42408   0.0214 
 C                    -2.8952    0.86611   0.13787 
 C                    -4.28572   0.48894  -0.0192 
 C                    -4.29014  -0.8738   -0.21031 
 C                    -2.89322  -1.28941  -0.14511 
 C                    -5.45555   1.4201    0.07181 
 C                    -5.41417  -1.78509  -0.39209 
 C                    -6.60332  -1.50495  -0.94928 
 C                    -1.14822  -3.01595  -0.23639 
 C                    -0.747    -4.40783  -0.36397 
 C                     0.61304  -4.41939  -0.25107 
 C                     1.01954  -3.03261  -0.07027 
 C                    -1.68471  -5.56314  -0.54805 
 C                     1.53814  -5.5955   -0.15572 
 C                     1.86785  -5.90438   1.31616 
 C                     2.9403   -6.94721   1.48542 
 O                     3.44215  -6.95463   2.75175 
 O                     3.3376   -7.71175   0.63408 
 N                     1.92758  -0.24298   0.36665 
 N                    -0.07227   1.7325    0.47085 
 N                    -2.06052  -0.22335   0.05957 
 N                    -0.06372  -2.19381  -0.0442 
 Fe                   -0.06577  -0.22946   0.20424 
 H                     3.10785  -3.40025  -0.00435 
 H                     3.09064   2.90206   0.87034 
 H                    -3.23598   2.93276   0.44895 
 H                    -3.22013  -3.3598   -0.47317 
 H                     6.26173   0.80943   0.82544 
 H                     5.39437   2.08283  -0.03699 
 H                     5.22887   1.93479   1.71013 
 H                     5.17715  -2.81395   0.66227 
 H                     6.22991  -1.42245   0.68505 
 H                     4.72873  -2.40781  -1.80923 
 H                     5.85054  -1.07063  -1.7768 
 H                     2.18154   4.93182   1.93035 
 H                     2.22288   5.2311    0.19265 
 H                     1.00459   6.02325   1.18887 
 H                    -1.26487   5.92258   1.45476 
 H                    -3.05945   4.74595  -0.73992 
 H                    -3.229     6.35652   0.15126 
 H                    -6.34796   0.88329   0.40701 
 H                    -5.69909   1.87971  -0.89565 
 H                    -5.26803   2.23517   0.77737 
 H                    -5.25969  -2.8012   -0.02949 
 H                    -6.83366  -0.53462  -1.37619 
 H                    -7.38052  -2.26058  -1.01103 
 H                    -1.14004  -6.50284  -0.67595 
 H                    -2.32168  -5.43151  -1.43099 
 H                    -2.355    -5.68521   0.31188 
 H                     2.47231  -5.41236  -0.69869 
 H                     1.09744  -6.48357  -0.61788 
 H                     2.177    -4.99867   1.846 
 H                     0.97098  -6.2552    1.84278 
 H                     7.74695  -3.71713  -2.97814 
 H                     4.10089  -7.6697    2.76703 
 N                     4.45966  -2.01812   9.07493 
 C                     3.81215  -1.64972   7.80455 
 C                     3.37667  -0.16712   7.85495 
 O                     2.34805   0.26988   7.40652 
 C                     2.62163  -2.5374    7.3287 
 C                     2.16666  -2.29094   5.91647 
 N                     2.79278  -2.85713   4.80964 
 C                     1.18005  -1.49433   5.38405 
 C                     2.18855  -2.39536   3.68259 
 N                     1.20683  -1.58043   4.01707 
 N                     0.89534  -1.62197  -6.48734 
 C                    -0.48547  -1.67033  -6.07116 
 C                    -1.43268  -1.93097  -7.23035 
 O                    -2.62483  -1.76244  -7.17842 
 C                    -0.93356  -0.38971  -5.32257 
 C                    -0.32443  -0.25055  -3.96783 
 N                     1.04222  -0.2231   -3.76471 
 C                    -0.873    -0.13939  -2.71466 
 C                     1.26817  -0.11777  -2.43196 
 N                     0.12622  -0.06625  -1.75966 
 O                    -0.45009  -0.45021   2.25694 
 O                     0.40486  -0.20405   3.17897 
 H                     1.77266  -2.37992   8.00135 
 H                     2.92425  -3.58631   7.44414 
 H                     0.48643  -0.84193   5.88918 
 H                     3.54352  -3.53299   4.82862 
 H                     2.47813  -2.64872   2.67414 
 H                     4.59838  -1.68638   7.03784 
 H                     3.77567  -2.12036   9.82042 
 H                     4.96058  -2.89623   8.98358 
 H                    -2.02047  -0.41975  -5.22397 
 H                    -0.69781   0.47757  -5.95658 
 H                    -1.91336  -0.11712  -2.4363 
 H                     1.71735  -0.41646  -4.49258 
 H                     2.25116  -0.0968   -1.99525 
 H                    -0.6092   -2.52119  -5.38845 
 H                     1.27705  -2.53351  -6.71305 
 H                     1.04296  -0.9983   -7.27487 
 S                    -0.62378  -2.56458  -8.75422 
 H                    -1.80294  -2.72059  -9.38577 
 S                     4.59208   0.8745    8.72303 
 H                     3.95376   2.01049   8.37203 
 
 NAtoms=    117 NQM=    117 NQMF=      0 NMic=      0 NMicF=      0 NTot=    117.
 The following ModRedundant input section has been read:
 X   36 F                                                                      
 X   12 F                                                                      
 X   76 F                                                                      
 X   78 F                                                                      
 X   86 F                                                                      
 X   88 F                                                                      
 B   85   97 F                                                                 
 B  114  116 F                                                                 
 B   43   96 F                                                                 
 B   39   43 F                                                                 
 B   40   43 F                                                                 
 B   41   43 F                                                                 
 B   42   43 F                                                                 
 B   43   95 F                                                                 
 D   15   40   42   39 F                                                       
 D   18   40   42   39 F                                                       
 D   15   40   42   41 F                                                       
 D   18   40   42   41 F                                                       
 D   40   39   41   22 F                                                       
 D   40   39   41   25 F                                                       
 D   42   39   41   22 F                                                       
 D   42   39   41   25 F                                                       
 D   41   40   42   29 F                                                       
 D   41   40   42   32 F                                                       
 D   39   40   42   29 F                                                       
 D   39   40   42   32 F                                                       
 D    5   39   41   42 F                                                       
 D    8   39   41   42 F                                                       
 D    5   39   41   40 F                                                       
 D    8   39   41   40 F                                                       
                    Isotopes and Nuclear Properties:
 (Nuclear quadrupole moments (NQMom) in fm**2, nuclear magnetic moments (NMagM)
  in nuclear magnetons)

  Atom         1           2           3           4           5           6           7           8           9          10
 IAtWgt=          12          12          12          12          12          12          12          12          12          12
 AtmWgt=  12.0000000  12.0000000  12.0000000  12.0000000  12.0000000  12.0000000  12.0000000  12.0000000  12.0000000  12.0000000
 NucSpn=           0           0           0           0           0           0           0           0           0           0
 AtZEff=   0.0000000   0.0000000   0.0000000   0.0000000   0.0000000   0.0000000   0.0000000   0.0000000   0.0000000   0.0000000
 NQMom=    0.0000000   0.0000000   0.0000000   0.0000000   0.0000000   0.0000000   0.0000000   0.0000000   0.0000000   0.0000000
 NMagM=    0.0000000   0.0000000   0.0000000   0.0000000   0.0000000   0.0000000   0.0000000   0.0000000   0.0000000   0.0000000

  Atom        11          12          13          14          15          16          17          18          19          20
 IAtWgt=          12          12          16          16          12          12          12          12          12          12
 AtmWgt=  12.0000000  12.0000000  15.9949146  15.9949146  12.0000000  12.0000000  12.0000000  12.0000000  12.0000000  12.0000000
 NucSpn=           0           0           0           0           0           0           0           0           0           0
 AtZEff=   0.0000000   0.0000000   0.0000000   0.0000000   0.0000000   0.0000000   0.0000000   0.0000000   0.0000000   0.0000000
 NQMom=    0.0000000   0.0000000   0.0000000   0.0000000   0.0000000   0.0000000   0.0000000   0.0000000   0.0000000   0.0000000
 NMagM=    0.0000000   0.0000000   0.0000000   0.0000000   0.0000000   0.0000000   0.0000000   0.0000000   0.0000000   0.0000000

  Atom        21          22          23          24          25          26          27          28          29          30
 IAtWgt=          12          12          12          12          12          12          12          12          12          12
 AtmWgt=  12.0000000  12.0000000  12.0000000  12.0000000  12.0000000  12.0000000  12.0000000  12.0000000  12.0000000  12.0000000
 NucSpn=           0           0           0           0           0           0           0           0           0           0
 AtZEff=   0.0000000   0.0000000   0.0000000   0.0000000   0.0000000   0.0000000   0.0000000   0.0000000   0.0000000   0.0000000
 NQMom=    0.0000000   0.0000000   0.0000000   0.0000000   0.0000000   0.0000000   0.0000000   0.0000000   0.0000000   0.0000000
 NMagM=    0.0000000   0.0000000   0.0000000   0.0000000   0.0000000   0.0000000   0.0000000   0.0000000   0.0000000   0.0000000

  Atom        31          32          33          34          35          36          37          38          39          40
 IAtWgt=          12          12          12          12          12          12          16          16          14          14
 AtmWgt=  12.0000000  12.0000000  12.0000000  12.0000000  12.0000000  12.0000000  15.9949146  15.9949146  14.0030740  14.0030740
 NucSpn=           0           0           0           0           0           0           0           0           2           2
 AtZEff=   0.0000000   0.0000000   0.0000000   0.0000000   0.0000000   0.0000000   0.0000000   0.0000000   0.0000000   0.0000000
 NQMom=    0.0000000   0.0000000   0.0000000   0.0000000   0.0000000   0.0000000   0.0000000   0.0000000   2.0440000   2.0440000
 NMagM=    0.0000000   0.0000000   0.0000000   0.0000000   0.0000000   0.0000000   0.0000000   0.0000000   0.4037610   0.4037610

  Atom        41          42          43          44          45          46          47          48          49          50
 IAtWgt=          14          14          56           1           1           1           1           1           1           1
 AtmWgt=  14.0030740  14.0030740  55.9349393   1.0078250   1.0078250   1.0078250   1.0078250   1.0078250   1.0078250   1.0078250
 NucSpn=           2           2           0           1           1           1           1           1           1           1
 AtZEff=   0.0000000   0.0000000   0.0000000   0.0000000   0.0000000   0.0000000   0.0000000   0.0000000   0.0000000   0.0000000
 NQMom=    2.0440000   2.0440000   0.0000000   0.0000000   0.0000000   0.0000000   0.0000000   0.0000000   0.0000000   0.0000000
 NMagM=    0.4037610   0.4037610   0.0000000   2.7928460   2.7928460   2.7928460   2.7928460   2.7928460   2.7928460   2.7928460

  Atom        51          52          53          54          55          56          57          58          59          60
 IAtWgt=           1           1           1           1           1           1           1           1           1           1
 AtmWgt=   1.0078250   1.0078250   1.0078250   1.0078250   1.0078250   1.0078250   1.0078250   1.0078250   1.0078250   1.0078250
 NucSpn=           1           1           1           1           1           1           1           1           1           1
 AtZEff=   0.0000000   0.0000000   0.0000000   0.0000000   0.0000000   0.0000000   0.0000000   0.0000000   0.0000000   0.0000000
 NQMom=    0.0000000   0.0000000   0.0000000   0.0000000   0.0000000   0.0000000   0.0000000   0.0000000   0.0000000   0.0000000
 NMagM=    2.7928460   2.7928460   2.7928460   2.7928460   2.7928460   2.7928460   2.7928460   2.7928460   2.7928460   2.7928460

  Atom        61          62          63          64          65          66          67          68          69          70
 IAtWgt=           1           1           1           1           1           1           1           1           1           1
 AtmWgt=   1.0078250   1.0078250   1.0078250   1.0078250   1.0078250   1.0078250   1.0078250   1.0078250   1.0078250   1.0078250
 NucSpn=           1           1           1           1           1           1           1           1           1           1
 AtZEff=   0.0000000   0.0000000   0.0000000   0.0000000   0.0000000   0.0000000   0.0000000   0.0000000   0.0000000   0.0000000
 NQMom=    0.0000000   0.0000000   0.0000000   0.0000000   0.0000000   0.0000000   0.0000000   0.0000000   0.0000000   0.0000000
 NMagM=    2.7928460   2.7928460   2.7928460   2.7928460   2.7928460   2.7928460   2.7928460   2.7928460   2.7928460   2.7928460

  Atom        71          72          73          74          75          76          77          78          79          80
 IAtWgt=           1           1           1           1           1          14          12          12          16          12
 AtmWgt=   1.0078250   1.0078250   1.0078250   1.0078250   1.0078250  14.0030740  12.0000000  12.0000000  15.9949146  12.0000000
 NucSpn=           1           1           1           1           1           2           0           0           0           0
 AtZEff=   0.0000000   0.0000000   0.0000000   0.0000000   0.0000000   0.0000000   0.0000000   0.0000000   0.0000000   0.0000000
 NQMom=    0.0000000   0.0000000   0.0000000   0.0000000   0.0000000   2.0440000   0.0000000   0.0000000   0.0000000   0.0000000
 NMagM=    2.7928460   2.7928460   2.7928460   2.7928460   2.7928460   0.4037610   0.0000000   0.0000000   0.0000000   0.0000000

  Atom        81          82          83          84          85          86          87          88          89          90
 IAtWgt=          12          14          12          12          14          14          12          12          16          12
 AtmWgt=  12.0000000  14.0030740  12.0000000  12.0000000  14.0030740  14.0030740  12.0000000  12.0000000  15.9949146  12.0000000
 NucSpn=           0           2           0           0           2           2           0           0           0           0
 AtZEff=   0.0000000   0.0000000   0.0000000   0.0000000   0.0000000   0.0000000   0.0000000   0.0000000   0.0000000   0.0000000
 NQMom=    0.0000000   2.0440000   0.0000000   0.0000000   2.0440000   2.0440000   0.0000000   0.0000000   0.0000000   0.0000000
 NMagM=    0.0000000   0.4037610   0.0000000   0.0000000   0.4037610   0.4037610   0.0000000   0.0000000   0.0000000   0.0000000

  Atom        91          92          93          94          95          96          97          98          99         100
 IAtWgt=          12          14          12          12          14          16          16           1           1           1
 AtmWgt=  12.0000000  14.0030740  12.0000000  12.0000000  14.0030740  15.9949146  15.9949146   1.0078250   1.0078250   1.0078250
 NucSpn=           0           2           0           0           2           0           0           1           1           1
 AtZEff=   0.0000000   0.0000000   0.0000000   0.0000000   0.0000000   0.0000000   0.0000000   0.0000000   0.0000000   0.0000000
 NQMom=    0.0000000   2.0440000   0.0000000   0.0000000   2.0440000   0.0000000   0.0000000   0.0000000   0.0000000   0.0000000
 NMagM=    0.0000000   0.4037610   0.0000000   0.0000000   0.4037610   0.0000000   0.0000000   2.7928460   2.7928460   2.7928460

  Atom       101         102         103         104         105         106         107         108         109         110
 IAtWgt=           1           1           1           1           1           1           1           1           1           1
 AtmWgt=   1.0078250   1.0078250   1.0078250   1.0078250   1.0078250   1.0078250   1.0078250   1.0078250   1.0078250   1.0078250
 NucSpn=           1           1           1           1           1           1           1           1           1           1
 AtZEff=   0.0000000   0.0000000   0.0000000   0.0000000   0.0000000   0.0000000   0.0000000   0.0000000   0.0000000   0.0000000
 NQMom=    0.0000000   0.0000000   0.0000000   0.0000000   0.0000000   0.0000000   0.0000000   0.0000000   0.0000000   0.0000000
 NMagM=    2.7928460   2.7928460   2.7928460   2.7928460   2.7928460   2.7928460   2.7928460   2.7928460   2.7928460   2.7928460

  Atom       111         112         113         114         115         116         117
 IAtWgt=           1           1           1          32           1          32           1
 AtmWgt=   1.0078250   1.0078250   1.0078250  31.9720718   1.0078250  31.9720718   1.0078250
 NucSpn=           1           1           1           0           1           0           1
 AtZEff=   0.0000000   0.0000000   0.0000000   0.0000000   0.0000000   0.0000000   0.0000000
 NQMom=    0.0000000   0.0000000   0.0000000   0.0000000   0.0000000   0.0000000   0.0000000
 NMagM=    2.7928460   2.7928460   2.7928460   0.0000000   2.7928460   0.0000000   2.7928460
 Leave Link  101 at Sat Nov 28 18:28:04 2015, MaxMem= 4026531840 cpu:       2.0
 (Enter /usr1/jkzhou/ycliu2/bin/fluxbrane_g09/g09/l103.exe)

 GradGradGradGradGradGradGradGradGradGradGradGradGradGradGradGradGradGrad
 Berny optimization.
 Initialization pass.
                           ----------------------------
                           !    Initial Parameters    !
                           ! (Angstroms and Degrees)  !
 --------------------------                            --------------------------
 ! Name  Definition              Value          Derivative Info.                !
 --------------------------------------------------------------------------------
 ! X12   R(12,-1)                6.7543         Frozen                          !
 ! Y12   R(12,-2)               -2.9817         Frozen                          !
 ! Z12   R(12,-3)               -1.5685         Frozen                          !
 ! X36   R(36,-1)                2.9403         Frozen                          !
 ! Y36   R(36,-2)               -6.9472         Frozen                          !
 ! Z36   R(36,-3)                1.4854         Frozen                          !
 ! X76   R(76,-1)                4.4597         Frozen                          !
 ! Y76   R(76,-2)               -2.0181         Frozen                          !
 ! Z76   R(76,-3)                9.0749         Frozen                          !
 ! X78   R(78,-1)                3.3767         Frozen                          !
 ! Y78   R(78,-2)               -0.1671         Frozen                          !
 ! Z78   R(78,-3)                7.8549         Frozen                          !
 ! X86   R(86,-1)                0.8953         Frozen                          !
 ! Y86   R(86,-2)               -1.622          Frozen                          !
 ! Z86   R(86,-3)               -6.4873         Frozen                          !
 ! X88   R(88,-1)               -1.4327         Frozen                          !
 ! Y88   R(88,-2)               -1.931          Frozen                          !
 ! Z88   R(88,-3)               -7.2303         Frozen                          !
 ! R1    R(1,5)                  1.391          estimate D2E/DX2                !
 ! R2    R(1,32)                 1.3899         estimate D2E/DX2                !
 ! R3    R(1,44)                 1.0851         estimate D2E/DX2                !
 ! R4    R(2,8)                  1.383          estimate D2E/DX2                !
 ! R5    R(2,15)                 1.3871         estimate D2E/DX2                !
 ! R6    R(2,45)                 1.0844         estimate D2E/DX2                !
 ! R7    R(3,18)                 1.3849         estimate D2E/DX2                !
 ! R8    R(3,22)                 1.3864         estimate D2E/DX2                !
 ! R9    R(3,46)                 1.0815         estimate D2E/DX2                !
 ! R10   R(4,25)                 1.3873         estimate D2E/DX2                !
 ! R11   R(4,29)                 1.3839         estimate D2E/DX2                !
 ! R12   R(4,47)                 1.0837         estimate D2E/DX2                !
 ! R13   R(5,6)                  1.4545         estimate D2E/DX2                !
 ! R14   R(5,39)                 1.3707         estimate D2E/DX2                !
 ! R15   R(6,7)                  1.3688         estimate D2E/DX2                !
 ! R16   R(6,10)                 1.5003         estimate D2E/DX2                !
 ! R17   R(7,8)                  1.4507         estimate D2E/DX2                !
 ! R18   R(7,9)                  1.4997         estimate D2E/DX2                !
 ! R19   R(8,39)                 1.3749         estimate D2E/DX2                !
 ! R20   R(9,48)                 1.0936         estimate D2E/DX2                !
 ! R21   R(9,49)                 1.0972         estimate D2E/DX2                !
 ! R22   R(9,50)                 1.0965         estimate D2E/DX2                !
 ! R23   R(10,11)                1.538          estimate D2E/DX2                !
 ! R24   R(10,51)                1.0956         estimate D2E/DX2                !
 ! R25   R(10,52)                1.0946         estimate D2E/DX2                !
 ! R26   R(11,12)                1.5073         estimate D2E/DX2                !
 ! R27   R(11,53)                1.0968         estimate D2E/DX2                !
 ! R28   R(11,54)                1.0963         estimate D2E/DX2                !
 ! R29   R(12,13)                1.3573         estimate D2E/DX2                !
 ! R30   R(12,14)                1.2124         estimate D2E/DX2                !
 ! R31   R(13,74)                0.9721         estimate D2E/DX2                !
 ! R32   R(15,16)                1.4479         estimate D2E/DX2                !
 ! R33   R(15,40)                1.3739         estimate D2E/DX2                !
 ! R34   R(16,17)                1.3714         estimate D2E/DX2                !
 ! R35   R(16,19)                1.4988         estimate D2E/DX2                !
 ! R36   R(17,18)                1.4627         estimate D2E/DX2                !
 ! R37   R(17,20)                1.4628         estimate D2E/DX2                !
 ! R38   R(18,40)                1.3724         estimate D2E/DX2                !
 ! R39   R(19,55)                1.0966         estimate D2E/DX2                !
 ! R40   R(19,56)                1.0974         estimate D2E/DX2                !
 ! R41   R(19,57)                1.0928         estimate D2E/DX2                !
 ! R42   R(20,21)                1.3416         estimate D2E/DX2                !
 ! R43   R(20,58)                1.0907         estimate D2E/DX2                !
 ! R44   R(21,59)                1.0851         estimate D2E/DX2                !
 ! R45   R(21,60)                1.0858         estimate D2E/DX2                !
 ! R46   R(22,23)                1.4493         estimate D2E/DX2                !
 ! R47   R(22,41)                1.3747         estimate D2E/DX2                !
 ! R48   R(23,24)                1.3761         estimate D2E/DX2                !
 ! R49   R(23,26)                1.498          estimate D2E/DX2                !
 ! R50   R(24,25)                1.4589         estimate D2E/DX2                !
 ! R51   R(24,27)                1.4584         estimate D2E/DX2                !
 ! R52   R(25,41)                1.3681         estimate D2E/DX2                !
 ! R53   R(26,61)                1.094          estimate D2E/DX2                !
 ! R54   R(26,62)                1.0984         estimate D2E/DX2                !
 ! R55   R(26,63)                1.0942         estimate D2E/DX2                !
 ! R56   R(27,28)                1.3428         estimate D2E/DX2                !
 ! R57   R(27,64)                1.0899         estimate D2E/DX2                !
 ! R58   R(28,65)                1.0848         estimate D2E/DX2                !
 ! R59   R(28,66)                1.0857         estimate D2E/DX2                !
 ! R60   R(29,30)                1.4542         estimate D2E/DX2                !
 ! R61   R(29,42)                1.3744         estimate D2E/DX2                !
 ! R62   R(30,31)                1.3648         estimate D2E/DX2                !
 ! R63   R(30,33)                1.4993         estimate D2E/DX2                !
 ! R64   R(31,32)                1.4564         estimate D2E/DX2                !
 ! R65   R(31,34)                1.4994         estimate D2E/DX2                !
 ! R66   R(32,42)                1.3703         estimate D2E/DX2                !
 ! R67   R(33,67)                1.0936         estimate D2E/DX2                !
 ! R68   R(33,68)                1.0967         estimate D2E/DX2                !
 ! R69   R(33,69)                1.0971         estimate D2E/DX2                !
 ! R70   R(34,35)                1.5397         estimate D2E/DX2                !
 ! R71   R(34,70)                1.0959         estimate D2E/DX2                !
 ! R72   R(34,71)                1.0938         estimate D2E/DX2                !
 ! R73   R(35,36)                1.5054         estimate D2E/DX2                !
 ! R74   R(35,72)                1.0939         estimate D2E/DX2                !
 ! R75   R(35,73)                1.0976         estimate D2E/DX2                !
 ! R76   R(36,37)                1.3622         estimate D2E/DX2                !
 ! R77   R(36,38)                1.2113         estimate D2E/DX2                !
 ! R78   R(37,75)                0.9724         estimate D2E/DX2                !
 ! R79   R(39,43)                2.0            Frozen                          !
 ! R80   R(40,43)                1.98           Frozen                          !
 ! R81   R(41,43)                2.0            Frozen                          !
 ! R82   R(42,43)                1.98           Frozen                          !
 ! R83   R(43,95)                1.98           Frozen                          !
 ! R84   R(43,96)                2.1            Frozen                          !
 ! R85   R(76,77)                1.4727         estimate D2E/DX2                !
 ! R86   R(76,104)               1.0169         estimate D2E/DX2                !
 ! R87   R(76,105)               1.0151         estimate D2E/DX2                !
 ! R88   R(77,78)                1.5461         estimate D2E/DX2                !
 ! R89   R(77,80)                1.5594         estimate D2E/DX2                !
 ! R90   R(77,103)               1.0988         estimate D2E/DX2                !
 ! R91   R(78,79)                1.2042         estimate D2E/DX2                !
 ! R92   R(78,116)               1.8209         estimate D2E/DX2                !
 ! R93   R(80,81)                1.504          estimate D2E/DX2                !
 ! R94   R(80,98)                1.0945         estimate D2E/DX2                !
 ! R95   R(80,99)                1.0978         estimate D2E/DX2                !
 ! R96   R(81,82)                1.392          estimate D2E/DX2                !
 ! R97   R(81,83)                1.3753         estimate D2E/DX2                !
 ! R98   R(82,84)                1.3596         estimate D2E/DX2                !
 ! R99   R(82,101)               1.0103         estimate D2E/DX2                !
 ! R100  R(83,85)                1.37           estimate D2E/DX2                !
 ! R101  R(83,100)               1.0779         estimate D2E/DX2                !
 ! R102  R(84,85)                1.319          estimate D2E/DX2                !
 ! R103  R(84,102)               1.0794         estimate D2E/DX2                !
 ! R104  R(85,97)                1.8            Frozen                          !
 ! R105  R(86,87)                1.443          estimate D2E/DX2                !
 ! R106  R(86,112)               1.0137         estimate D2E/DX2                !
 ! R107  R(86,113)               1.0154         estimate D2E/DX2                !
 ! R108  R(87,88)                1.5195         estimate D2E/DX2                !
 ! R109  R(87,90)                1.5496         estimate D2E/DX2                !
 ! R110  R(87,111)               1.0979         estimate D2E/DX2                !
 ! R111  R(88,89)                1.2051         estimate D2E/DX2                !
 ! R112  R(88,114)               1.8379         estimate D2E/DX2                !
 ! R113  R(90,91)                1.4919         estimate D2E/DX2                !
 ! R114  R(90,106)               1.0918         estimate D2E/DX2                !
 ! R115  R(90,107)               1.0999         estimate D2E/DX2                !
 ! R116  R(91,92)                1.3819         estimate D2E/DX2                !
 ! R117  R(91,93)                1.3725         estimate D2E/DX2                !
 ! R118  R(92,94)                1.3559         estimate D2E/DX2                !
 ! R119  R(92,109)               1.0114         estimate D2E/DX2                !
 ! R120  R(93,95)                1.3841         estimate D2E/DX2                !
 ! R121  R(93,108)               1.0772         estimate D2E/DX2                !
 ! R122  R(94,95)                1.3262         estimate D2E/DX2                !
 ! R123  R(94,110)               1.0758         estimate D2E/DX2                !
 ! R124  R(96,97)                1.2813         estimate D2E/DX2                !
 ! R125  R(114,115)              1.3467         estimate D2E/DX2                !
 ! R126  R(114,116)             18.5604         Frozen                          !
 ! R127  R(116,117)              1.3495         estimate D2E/DX2                !
 ! A1    A(5,1,32)             125.0198         estimate D2E/DX2                !
 ! A2    A(5,1,44)             117.5099         estimate D2E/DX2                !
 ! A3    A(32,1,44)            117.4691         estimate D2E/DX2                !
 ! A4    A(8,2,15)             124.8702         estimate D2E/DX2                !
 ! A5    A(8,2,45)             117.6559         estimate D2E/DX2                !
 ! A6    A(15,2,45)            117.4734         estimate D2E/DX2                !
 ! A7    A(18,3,22)            125.2525         estimate D2E/DX2                !
 ! A8    A(18,3,46)            117.0863         estimate D2E/DX2                !
 ! A9    A(22,3,46)            117.6606         estimate D2E/DX2                !
 ! A10   A(25,4,29)            124.8618         estimate D2E/DX2                !
 ! A11   A(25,4,47)            117.7966         estimate D2E/DX2                !
 ! A12   A(29,4,47)            117.3415         estimate D2E/DX2                !
 ! A13   A(1,5,6)              124.1345         estimate D2E/DX2                !
 ! A14   A(1,5,39)             124.5382         estimate D2E/DX2                !
 ! A15   A(6,5,39)             111.2707         estimate D2E/DX2                !
 ! A16   A(5,6,7)              106.2584         estimate D2E/DX2                !
 ! A17   A(5,6,10)             125.1021         estimate D2E/DX2                !
 ! A18   A(7,6,10)             128.2921         estimate D2E/DX2                !
 ! A19   A(6,7,8)              106.0524         estimate D2E/DX2                !
 ! A20   A(6,7,9)              128.791          estimate D2E/DX2                !
 ! A21   A(8,7,9)              125.1515         estimate D2E/DX2                !
 ! A22   A(2,8,7)              123.7884         estimate D2E/DX2                !
 ! A23   A(2,8,39)             124.7357         estimate D2E/DX2                !
 ! A24   A(7,8,39)             111.4633         estimate D2E/DX2                !
 ! A25   A(7,9,48)             111.4776         estimate D2E/DX2                !
 ! A26   A(7,9,49)             111.938          estimate D2E/DX2                !
 ! A27   A(7,9,50)             111.5426         estimate D2E/DX2                !
 ! A28   A(48,9,49)            107.4001         estimate D2E/DX2                !
 ! A29   A(48,9,50)            107.4102         estimate D2E/DX2                !
 ! A30   A(49,9,50)            106.8028         estimate D2E/DX2                !
 ! A31   A(6,10,11)            110.8794         estimate D2E/DX2                !
 ! A32   A(6,10,51)            111.6952         estimate D2E/DX2                !
 ! A33   A(6,10,52)            110.8255         estimate D2E/DX2                !
 ! A34   A(11,10,51)           108.6538         estimate D2E/DX2                !
 ! A35   A(11,10,52)           108.9714         estimate D2E/DX2                !
 ! A36   A(51,10,52)           105.6394         estimate D2E/DX2                !
 ! A37   A(10,11,12)           113.3772         estimate D2E/DX2                !
 ! A38   A(10,11,53)           110.5675         estimate D2E/DX2                !
 ! A39   A(10,11,54)           110.8476         estimate D2E/DX2                !
 ! A40   A(12,11,53)           107.8846         estimate D2E/DX2                !
 ! A41   A(12,11,54)           108.3133         estimate D2E/DX2                !
 ! A42   A(53,11,54)           105.4967         estimate D2E/DX2                !
 ! A43   A(11,12,13)           111.6781         estimate D2E/DX2                !
 ! A44   A(11,12,14)           126.0709         estimate D2E/DX2                !
 ! A45   A(13,12,14)           122.2504         estimate D2E/DX2                !
 ! A46   A(12,13,74)           105.9678         estimate D2E/DX2                !
 ! A47   A(2,15,16)            122.8888         estimate D2E/DX2                !
 ! A48   A(2,15,40)            125.3286         estimate D2E/DX2                !
 ! A49   A(16,15,40)           111.7803         estimate D2E/DX2                !
 ! A50   A(15,16,17)           106.2668         estimate D2E/DX2                !
 ! A51   A(15,16,19)           125.2316         estimate D2E/DX2                !
 ! A52   A(17,16,19)           128.47           estimate D2E/DX2                !
 ! A53   A(16,17,18)           105.783          estimate D2E/DX2                !
 ! A54   A(16,17,20)           125.8765         estimate D2E/DX2                !
 ! A55   A(18,17,20)           128.3401         estimate D2E/DX2                !
 ! A56   A(3,18,17)            123.6684         estimate D2E/DX2                !
 ! A57   A(3,18,40)            124.9468         estimate D2E/DX2                !
 ! A58   A(17,18,40)           111.3814         estimate D2E/DX2                !
 ! A59   A(16,19,55)           111.6753         estimate D2E/DX2                !
 ! A60   A(16,19,56)           111.7307         estimate D2E/DX2                !
 ! A61   A(16,19,57)           111.3489         estimate D2E/DX2                !
 ! A62   A(55,19,56)           107.0047         estimate D2E/DX2                !
 ! A63   A(55,19,57)           107.7173         estimate D2E/DX2                !
 ! A64   A(56,19,57)           107.1099         estimate D2E/DX2                !
 ! A65   A(17,20,21)           127.7796         estimate D2E/DX2                !
 ! A66   A(17,20,58)           114.9581         estimate D2E/DX2                !
 ! A67   A(21,20,58)           117.2235         estimate D2E/DX2                !
 ! A68   A(20,21,59)           122.4449         estimate D2E/DX2                !
 ! A69   A(20,21,60)           120.7931         estimate D2E/DX2                !
 ! A70   A(59,21,60)           116.7437         estimate D2E/DX2                !
 ! A71   A(3,22,23)            123.5211         estimate D2E/DX2                !
 ! A72   A(3,22,41)            124.7447         estimate D2E/DX2                !
 ! A73   A(23,22,41)           111.7237         estimate D2E/DX2                !
 ! A74   A(22,23,24)           106.0131         estimate D2E/DX2                !
 ! A75   A(22,23,26)           125.5152         estimate D2E/DX2                !
 ! A76   A(24,23,26)           128.4277         estimate D2E/DX2                !
 ! A77   A(23,24,25)           105.8329         estimate D2E/DX2                !
 ! A78   A(23,24,27)           129.6862         estimate D2E/DX2                !
 ! A79   A(25,24,27)           124.4406         estimate D2E/DX2                !
 ! A80   A(4,25,24)            123.96           estimate D2E/DX2                !
 ! A81   A(4,25,41)            124.4705         estimate D2E/DX2                !
 ! A82   A(24,25,41)           111.5611         estimate D2E/DX2                !
 ! A83   A(23,26,61)           110.5258         estimate D2E/DX2                !
 ! A84   A(23,26,62)           112.3173         estimate D2E/DX2                !
 ! A85   A(23,26,63)           111.6158         estimate D2E/DX2                !
 ! A86   A(61,26,62)           107.1162         estimate D2E/DX2                !
 ! A87   A(61,26,63)           107.922          estimate D2E/DX2                !
 ! A88   A(62,26,63)           107.1128         estimate D2E/DX2                !
 ! A89   A(24,27,28)           127.1506         estimate D2E/DX2                !
 ! A90   A(24,27,64)           115.5851         estimate D2E/DX2                !
 ! A91   A(28,27,64)           117.2642         estimate D2E/DX2                !
 ! A92   A(27,28,65)           122.544          estimate D2E/DX2                !
 ! A93   A(27,28,66)           120.8196         estimate D2E/DX2                !
 ! A94   A(65,28,66)           116.6239         estimate D2E/DX2                !
 ! A95   A(4,29,30)            123.1069         estimate D2E/DX2                !
 ! A96   A(4,29,42)            125.3535         estimate D2E/DX2                !
 ! A97   A(30,29,42)           111.5379         estimate D2E/DX2                !
 ! A98   A(29,30,31)           106.0101         estimate D2E/DX2                !
 ! A99   A(29,30,33)           125.1537         estimate D2E/DX2                !
 ! A100  A(31,30,33)           128.8209         estimate D2E/DX2                !
 ! A101  A(30,31,32)           106.2815         estimate D2E/DX2                !
 ! A102  A(30,31,34)           128.8114         estimate D2E/DX2                !
 ! A103  A(32,31,34)           124.5269         estimate D2E/DX2                !
 ! A104  A(1,32,31)            123.497          estimate D2E/DX2                !
 ! A105  A(1,32,42)            125.1206         estimate D2E/DX2                !
 ! A106  A(31,32,42)           111.3814         estimate D2E/DX2                !
 ! A107  A(30,33,67)           111.4061         estimate D2E/DX2                !
 ! A108  A(30,33,68)           111.6924         estimate D2E/DX2                !
 ! A109  A(30,33,69)           111.8146         estimate D2E/DX2                !
 ! A110  A(67,33,68)           107.353          estimate D2E/DX2                !
 ! A111  A(67,33,69)           107.4783         estimate D2E/DX2                !
 ! A112  A(68,33,69)           106.8309         estimate D2E/DX2                !
 ! A113  A(31,34,35)           110.5044         estimate D2E/DX2                !
 ! A114  A(31,34,70)           111.3053         estimate D2E/DX2                !
 ! A115  A(31,34,71)           111.1855         estimate D2E/DX2                !
 ! A116  A(35,34,70)           108.9429         estimate D2E/DX2                !
 ! A117  A(35,34,71)           109.1058         estimate D2E/DX2                !
 ! A118  A(70,34,71)           105.651          estimate D2E/DX2                !
 ! A119  A(34,35,36)           113.516          estimate D2E/DX2                !
 ! A120  A(34,35,72)           110.9433         estimate D2E/DX2                !
 ! A121  A(34,35,73)           110.3529         estimate D2E/DX2                !
 ! A122  A(36,35,72)           108.5272         estimate D2E/DX2                !
 ! A123  A(36,35,73)           107.8641         estimate D2E/DX2                !
 ! A124  A(72,35,73)           105.2587         estimate D2E/DX2                !
 ! A125  A(35,36,37)           111.762          estimate D2E/DX2                !
 ! A126  A(35,36,38)           126.2909         estimate D2E/DX2                !
 ! A127  A(37,36,38)           121.9462         estimate D2E/DX2                !
 ! A128  A(36,37,75)           105.5577         estimate D2E/DX2                !
 ! A129  A(5,39,8)             104.9294         estimate D2E/DX2                !
 ! A130  A(5,39,43)            127.5222         estimate D2E/DX2                !
 ! A131  A(8,39,43)            127.5474         estimate D2E/DX2                !
 ! A132  A(15,40,18)           104.7597         estimate D2E/DX2                !
 ! A133  A(15,40,43)           127.5708         estimate D2E/DX2                !
 ! A134  A(18,40,43)           127.6685         estimate D2E/DX2                !
 ! A135  A(22,41,25)           104.8629         estimate D2E/DX2                !
 ! A136  A(22,41,43)           127.1491         estimate D2E/DX2                !
 ! A137  A(25,41,43)           127.9871         estimate D2E/DX2                !
 ! A138  A(29,42,32)           104.7712         estimate D2E/DX2                !
 ! A139  A(29,42,43)           127.6028         estimate D2E/DX2                !
 ! A140  A(32,42,43)           127.625          estimate D2E/DX2                !
 ! A141  A(39,43,40)            89.9448         estimate D2E/DX2                !
 ! A142  A(39,43,42)            90.1405         estimate D2E/DX2                !
 ! A143  A(39,43,95)            89.1097         estimate D2E/DX2                !
 ! A144  A(39,43,96)            95.8725         estimate D2E/DX2                !
 ! A145  A(40,43,41)            90.1969         estimate D2E/DX2                !
 ! A146  A(40,43,95)            92.9918         estimate D2E/DX2                !
 ! A147  A(40,43,96)            88.3922         estimate D2E/DX2                !
 ! A148  A(41,43,42)            89.7127         estimate D2E/DX2                !
 ! A149  A(41,43,95)            91.4159         estimate D2E/DX2                !
 ! A150  A(41,43,96)            83.598          estimate D2E/DX2                !
 ! A151  A(42,43,95)            87.5483         estimate D2E/DX2                !
 ! A152  A(42,43,96)            91.063          estimate D2E/DX2                !
 ! A153  A(77,76,104)          111.2111         estimate D2E/DX2                !
 ! A154  A(77,76,105)          110.839          estimate D2E/DX2                !
 ! A155  A(104,76,105)         108.1162         estimate D2E/DX2                !
 ! A156  A(76,77,78)           109.6097         estimate D2E/DX2                !
 ! A157  A(76,77,80)           117.1611         estimate D2E/DX2                !
 ! A158  A(76,77,103)          106.1986         estimate D2E/DX2                !
 ! A159  A(78,77,80)           109.9245         estimate D2E/DX2                !
 ! A160  A(78,77,103)          104.8496         estimate D2E/DX2                !
 ! A161  A(80,77,103)          108.3225         estimate D2E/DX2                !
 ! A162  A(77,78,79)           125.2022         estimate D2E/DX2                !
 ! A163  A(77,78,116)          112.0914         estimate D2E/DX2                !
 ! A164  A(79,78,116)          122.6892         estimate D2E/DX2                !
 ! A165  A(77,80,81)           115.0988         estimate D2E/DX2                !
 ! A166  A(77,80,98)           108.8284         estimate D2E/DX2                !
 ! A167  A(77,80,99)           107.5389         estimate D2E/DX2                !
 ! A168  A(81,80,98)           108.5926         estimate D2E/DX2                !
 ! A169  A(81,80,99)           109.7977         estimate D2E/DX2                !
 ! A170  A(98,80,99)           106.6583         estimate D2E/DX2                !
 ! A171  A(80,81,82)           122.9489         estimate D2E/DX2                !
 ! A172  A(80,81,83)           132.4866         estimate D2E/DX2                !
 ! A173  A(82,81,83)           104.5038         estimate D2E/DX2                !
 ! A174  A(81,82,84)           108.7289         estimate D2E/DX2                !
 ! A175  A(81,82,101)          126.255          estimate D2E/DX2                !
 ! A176  A(84,82,101)          124.9596         estimate D2E/DX2                !
 ! A177  A(81,83,85)           109.625          estimate D2E/DX2                !
 ! A178  A(81,83,100)          129.1074         estimate D2E/DX2                !
 ! A179  A(85,83,100)          121.2132         estimate D2E/DX2                !
 ! A180  A(82,84,85)           109.2929         estimate D2E/DX2                !
 ! A181  A(82,84,102)          125.1367         estimate D2E/DX2                !
 ! A182  A(85,84,102)          125.5662         estimate D2E/DX2                !
 ! A183  A(83,85,84)           107.8436         estimate D2E/DX2                !
 ! A184  A(83,85,97)           114.0687         estimate D2E/DX2                !
 ! A185  A(84,85,97)           133.3119         estimate D2E/DX2                !
 ! A186  A(87,86,112)          113.2298         estimate D2E/DX2                !
 ! A187  A(87,86,113)          112.5449         estimate D2E/DX2                !
 ! A188  A(112,86,113)         108.9585         estimate D2E/DX2                !
 ! A189  A(86,87,88)           112.4726         estimate D2E/DX2                !
 ! A190  A(86,87,90)           112.8516         estimate D2E/DX2                !
 ! A191  A(86,87,111)          108.2504         estimate D2E/DX2                !
 ! A192  A(88,87,90)           109.2712         estimate D2E/DX2                !
 ! A193  A(88,87,111)          105.7355         estimate D2E/DX2                !
 ! A194  A(90,87,111)          107.9077         estimate D2E/DX2                !
 ! A195  A(87,88,89)           124.0424         estimate D2E/DX2                !
 ! A196  A(87,88,114)          114.6645         estimate D2E/DX2                !
 ! A197  A(89,88,114)          121.2859         estimate D2E/DX2                !
 ! A198  A(87,90,91)           113.4346         estimate D2E/DX2                !
 ! A199  A(87,90,106)          107.985          estimate D2E/DX2                !
 ! A200  A(87,90,107)          108.1322         estimate D2E/DX2                !
 ! A201  A(91,90,106)          109.0886         estimate D2E/DX2                !
 ! A202  A(91,90,107)          111.2468         estimate D2E/DX2                !
 ! A203  A(106,90,107)         106.6869         estimate D2E/DX2                !
 ! A204  A(90,91,92)           122.6229         estimate D2E/DX2                !
 ! A205  A(90,91,93)           132.3369         estimate D2E/DX2                !
 ! A206  A(92,91,93)           105.0378         estimate D2E/DX2                !
 ! A207  A(91,92,94)           108.1092         estimate D2E/DX2                !
 ! A208  A(91,92,109)          123.4045         estimate D2E/DX2                !
 ! A209  A(94,92,109)          127.6609         estimate D2E/DX2                !
 ! A210  A(91,93,95)           110.2257         estimate D2E/DX2                !
 ! A211  A(91,93,108)          128.5837         estimate D2E/DX2                !
 ! A212  A(95,93,108)          121.1873         estimate D2E/DX2                !
 ! A213  A(92,94,95)           110.9669         estimate D2E/DX2                !
 ! A214  A(92,94,110)          123.5584         estimate D2E/DX2                !
 ! A215  A(95,94,110)          125.4674         estimate D2E/DX2                !
 ! A216  A(43,95,93)           127.5896         estimate D2E/DX2                !
 ! A217  A(43,95,94)           125.6705         estimate D2E/DX2                !
 ! A218  A(93,95,94)           105.6525         estimate D2E/DX2                !
 ! A219  A(43,96,97)           124.1319         estimate D2E/DX2                !
 ! A220  A(85,97,96)           119.0419         estimate D2E/DX2                !
 ! A221  A(88,114,115)          92.4879         estimate D2E/DX2                !
 ! A222  A(78,116,117)          92.3964         estimate D2E/DX2                !
 ! D1    D(32,1,5,6)          -179.1895         estimate D2E/DX2                !
 ! D2    D(32,1,5,39)           -2.1681         estimate D2E/DX2                !
 ! D3    D(44,1,5,6)             1.2182         estimate D2E/DX2                !
 ! D4    D(44,1,5,39)          178.2396         estimate D2E/DX2                !
 ! D5    D(5,1,32,31)         -177.4185         estimate D2E/DX2                !
 ! D6    D(5,1,32,42)            2.1809         estimate D2E/DX2                !
 ! D7    D(44,1,32,31)           2.1739         estimate D2E/DX2                !
 ! D8    D(44,1,32,42)        -178.2266         estimate D2E/DX2                !
 ! D9    D(15,2,8,7)           178.7613         estimate D2E/DX2                !
 ! D10   D(15,2,8,39)            0.1643         estimate D2E/DX2                !
 ! D11   D(45,2,8,7)            -1.5004         estimate D2E/DX2                !
 ! D12   D(45,2,8,39)          179.9026         estimate D2E/DX2                !
 ! D13   D(8,2,15,16)          179.2403         estimate D2E/DX2                !
 ! D14   D(8,2,15,40)           -0.1653         estimate D2E/DX2                !
 ! D15   D(45,2,15,16)          -0.4984         estimate D2E/DX2                !
 ! D16   D(45,2,15,40)        -179.904          estimate D2E/DX2                !
 ! D17   D(22,3,18,17)         178.2937         estimate D2E/DX2                !
 ! D18   D(22,3,18,40)          -2.4367         estimate D2E/DX2                !
 ! D19   D(46,3,18,17)          -1.9994         estimate D2E/DX2                !
 ! D20   D(46,3,18,40)         177.2702         estimate D2E/DX2                !
 ! D21   D(18,3,22,23)        -178.8443         estimate D2E/DX2                !
 ! D22   D(18,3,22,41)           2.4314         estimate D2E/DX2                !
 ! D23   D(46,3,22,23)           1.4504         estimate D2E/DX2                !
 ! D24   D(46,3,22,41)        -177.2739         estimate D2E/DX2                !
 ! D25   D(29,4,25,24)        -179.9697         estimate D2E/DX2                !
 ! D26   D(29,4,25,41)           1.1733         estimate D2E/DX2                !
 ! D27   D(47,4,25,24)           0.0935         estimate D2E/DX2                !
 ! D28   D(47,4,25,41)        -178.7634         estimate D2E/DX2                !
 ! D29   D(25,4,29,30)         178.3107         estimate D2E/DX2                !
 ! D30   D(25,4,29,42)          -1.1838         estimate D2E/DX2                !
 ! D31   D(47,4,29,30)          -1.7523         estimate D2E/DX2                !
 ! D32   D(47,4,29,42)         178.7532         estimate D2E/DX2                !
 ! D33   D(1,5,6,7)            178.8876         estimate D2E/DX2                !
 ! D34   D(1,5,6,10)             5.1898         estimate D2E/DX2                !
 ! D35   D(39,5,6,7)             1.5204         estimate D2E/DX2                !
 ! D36   D(39,5,6,10)         -172.1775         estimate D2E/DX2                !
 ! D37   D(1,5,39,8)          -178.9922         estimate D2E/DX2                !
 ! D38   D(1,5,39,43)            0.6716         estimate D2E/DX2                !
 ! D39   D(6,5,39,8)            -1.6377         estimate D2E/DX2                !
 ! D40   D(6,5,39,43)          178.0262         estimate D2E/DX2                !
 ! D41   D(5,6,7,8)             -0.7182         estimate D2E/DX2                !
 ! D42   D(5,6,7,9)           -179.9171         estimate D2E/DX2                !
 ! D43   D(10,6,7,8)           172.7113         estimate D2E/DX2                !
 ! D44   D(10,6,7,9)            -6.4875         estimate D2E/DX2                !
 ! D45   D(5,6,10,11)           79.1001         estimate D2E/DX2                !
 ! D46   D(5,6,10,51)          -42.2447         estimate D2E/DX2                !
 ! D47   D(5,6,10,52)         -159.7446         estimate D2E/DX2                !
 ! D48   D(7,6,10,11)          -93.1836         estimate D2E/DX2                !
 ! D49   D(7,6,10,51)          145.4715         estimate D2E/DX2                !
 ! D50   D(7,6,10,52)           27.9717         estimate D2E/DX2                !
 ! D51   D(6,7,8,2)           -179.0261         estimate D2E/DX2                !
 ! D52   D(6,7,8,39)            -0.2651         estimate D2E/DX2                !
 ! D53   D(9,7,8,2)              0.2101         estimate D2E/DX2                !
 ! D54   D(9,7,8,39)           178.9712         estimate D2E/DX2                !
 ! D55   D(6,7,9,48)            -4.2555         estimate D2E/DX2                !
 ! D56   D(6,7,9,49)           116.0703         estimate D2E/DX2                !
 ! D57   D(6,7,9,50)          -124.3225         estimate D2E/DX2                !
 ! D58   D(8,7,9,48)           176.6862         estimate D2E/DX2                !
 ! D59   D(8,7,9,49)           -62.9881         estimate D2E/DX2                !
 ! D60   D(8,7,9,50)            56.6191         estimate D2E/DX2                !
 ! D61   D(2,8,39,5)           179.9231         estimate D2E/DX2                !
 ! D62   D(2,8,39,43)            0.2594         estimate D2E/DX2                !
 ! D63   D(7,8,39,5)             1.1761         estimate D2E/DX2                !
 ! D64   D(7,8,39,43)         -178.4877         estimate D2E/DX2                !
 ! D65   D(6,10,11,12)        -177.2641         estimate D2E/DX2                !
 ! D66   D(6,10,11,53)         -55.9627         estimate D2E/DX2                !
 ! D67   D(6,10,11,54)          60.6692         estimate D2E/DX2                !
 ! D68   D(51,10,11,12)        -54.1466         estimate D2E/DX2                !
 ! D69   D(51,10,11,53)         67.1547         estimate D2E/DX2                !
 ! D70   D(51,10,11,54)       -176.2133         estimate D2E/DX2                !
 ! D71   D(52,10,11,12)         60.4939         estimate D2E/DX2                !
 ! D72   D(52,10,11,53)       -178.2048         estimate D2E/DX2                !
 ! D73   D(52,10,11,54)        -61.5728         estimate D2E/DX2                !
 ! D74   D(10,11,12,13)       -177.1104         estimate D2E/DX2                !
 ! D75   D(10,11,12,14)          3.1556         estimate D2E/DX2                !
 ! D76   D(53,11,12,13)         60.0936         estimate D2E/DX2                !
 ! D77   D(53,11,12,14)       -119.6404         estimate D2E/DX2                !
 ! D78   D(54,11,12,13)        -53.643          estimate D2E/DX2                !
 ! D79   D(54,11,12,14)        126.6231         estimate D2E/DX2                !
 ! D80   D(11,12,13,74)       -179.4075         estimate D2E/DX2                !
 ! D81   D(14,12,13,74)          0.3382         estimate D2E/DX2                !
 ! D82   D(2,15,16,17)         179.0053         estimate D2E/DX2                !
 ! D83   D(2,15,16,19)           0.9087         estimate D2E/DX2                !
 ! D84   D(40,15,16,17)         -1.5169         estimate D2E/DX2                !
 ! D85   D(40,15,16,19)       -179.6135         estimate D2E/DX2                !
 ! D86   D(2,15,40,18)        -179.9229         estimate D2E/DX2                !
 ! D87   D(2,15,40,43)          -0.2626         estimate D2E/DX2                !
 ! D88   D(16,15,40,18)          0.6147         estimate D2E/DX2                !
 ! D89   D(16,15,40,43)       -179.7251         estimate D2E/DX2                !
 ! D90   D(15,16,17,18)          1.6762         estimate D2E/DX2                !
 ! D91   D(15,16,17,20)       -178.1311         estimate D2E/DX2                !
 ! D92   D(19,16,17,18)        179.6903         estimate D2E/DX2                !
 ! D93   D(19,16,17,20)         -0.117          estimate D2E/DX2                !
 ! D94   D(15,16,19,55)        -56.9057         estimate D2E/DX2                !
 ! D95   D(15,16,19,56)         62.9085         estimate D2E/DX2                !
 ! D96   D(15,16,19,57)       -177.3667         estimate D2E/DX2                !
 ! D97   D(17,16,19,55)        125.4284         estimate D2E/DX2                !
 ! D98   D(17,16,19,56)       -114.7574         estimate D2E/DX2                !
 ! D99   D(17,16,19,57)          4.9673         estimate D2E/DX2                !
 ! D100  D(16,17,18,3)         177.9375         estimate D2E/DX2                !
 ! D101  D(16,17,18,40)         -1.4196         estimate D2E/DX2                !
 ! D102  D(20,17,18,3)          -2.2617         estimate D2E/DX2                !
 ! D103  D(20,17,18,40)        178.3813         estimate D2E/DX2                !
 ! D104  D(16,17,20,21)        142.1247         estimate D2E/DX2                !
 ! D105  D(16,17,20,58)        -35.527          estimate D2E/DX2                !
 ! D106  D(18,17,20,21)        -37.6388         estimate D2E/DX2                !
 ! D107  D(18,17,20,58)        144.7095         estimate D2E/DX2                !
 ! D108  D(3,18,40,15)        -178.8693         estimate D2E/DX2                !
 ! D109  D(3,18,40,43)           1.4709         estimate D2E/DX2                !
 ! D110  D(17,18,40,15)          0.4779         estimate D2E/DX2                !
 ! D111  D(17,18,40,43)       -179.1819         estimate D2E/DX2                !
 ! D112  D(17,20,21,59)         -1.1193         estimate D2E/DX2                !
 ! D113  D(17,20,21,60)       -179.5095         estimate D2E/DX2                !
 ! D114  D(58,20,21,59)        176.4864         estimate D2E/DX2                !
 ! D115  D(58,20,21,60)         -1.9038         estimate D2E/DX2                !
 ! D116  D(3,22,23,24)        -179.3874         estimate D2E/DX2                !
 ! D117  D(3,22,23,26)          -1.6332         estimate D2E/DX2                !
 ! D118  D(41,22,23,24)         -0.5158         estimate D2E/DX2                !
 ! D119  D(41,22,23,26)        177.2385         estimate D2E/DX2                !
 ! D120  D(3,22,41,25)         178.8736         estimate D2E/DX2                !
 ! D121  D(3,22,41,43)          -1.4608         estimate D2E/DX2                !
 ! D122  D(23,22,41,25)          0.0184         estimate D2E/DX2                !
 ! D123  D(23,22,41,43)        179.6841         estimate D2E/DX2                !
 ! D124  D(22,23,24,25)          0.7516         estimate D2E/DX2                !
 ! D125  D(22,23,24,27)        178.4831         estimate D2E/DX2                !
 ! D126  D(26,23,24,25)       -176.915          estimate D2E/DX2                !
 ! D127  D(26,23,24,27)          0.8166         estimate D2E/DX2                !
 ! D128  D(22,23,26,61)       -152.0579         estimate D2E/DX2                !
 ! D129  D(22,23,26,62)         88.3783         estimate D2E/DX2                !
 ! D130  D(22,23,26,63)        -31.9393         estimate D2E/DX2                !
 ! D131  D(24,23,26,61)         25.1863         estimate D2E/DX2                !
 ! D132  D(24,23,26,62)        -94.3775         estimate D2E/DX2                !
 ! D133  D(24,23,26,63)        145.3049         estimate D2E/DX2                !
 ! D134  D(23,24,25,4)        -179.789          estimate D2E/DX2                !
 ! D135  D(23,24,25,41)         -0.8022         estimate D2E/DX2                !
 ! D136  D(27,24,25,4)           2.3276         estimate D2E/DX2                !
 ! D137  D(27,24,25,41)       -178.6856         estimate D2E/DX2                !
 ! D138  D(23,24,27,28)         29.8906         estimate D2E/DX2                !
 ! D139  D(23,24,27,64)       -149.9578         estimate D2E/DX2                !
 ! D140  D(25,24,27,28)       -152.7559         estimate D2E/DX2                !
 ! D141  D(25,24,27,64)         27.3957         estimate D2E/DX2                !
 ! D142  D(4,25,41,22)         179.4537         estimate D2E/DX2                !
 ! D143  D(4,25,41,43)          -0.2081         estimate D2E/DX2                !
 ! D144  D(24,25,41,22)          0.4731         estimate D2E/DX2                !
 ! D145  D(24,25,41,43)       -179.1888         estimate D2E/DX2                !
 ! D146  D(24,27,28,65)          2.827          estimate D2E/DX2                !
 ! D147  D(24,27,28,66)       -178.5063         estimate D2E/DX2                !
 ! D148  D(64,27,28,65)       -177.3268         estimate D2E/DX2                !
 ! D149  D(64,27,28,66)          1.3399         estimate D2E/DX2                !
 ! D150  D(4,29,30,31)        -179.8154         estimate D2E/DX2                !
 ! D151  D(4,29,30,33)          -1.1368         estimate D2E/DX2                !
 ! D152  D(42,29,30,31)         -0.2587         estimate D2E/DX2                !
 ! D153  D(42,29,30,33)        178.42           estimate D2E/DX2                !
 ! D154  D(4,29,42,32)        -179.4464         estimate D2E/DX2                !
 ! D155  D(4,29,42,43)           0.2138         estimate D2E/DX2                !
 ! D156  D(30,29,42,32)          1.0088         estimate D2E/DX2                !
 ! D157  D(30,29,42,43)       -179.331          estimate D2E/DX2                !
 ! D158  D(29,30,31,32)         -0.5694         estimate D2E/DX2                !
 ! D159  D(29,30,31,34)        172.5066         estimate D2E/DX2                !
 ! D160  D(33,30,31,32)       -179.1827         estimate D2E/DX2                !
 ! D161  D(33,30,31,34)         -6.1067         estimate D2E/DX2                !
 ! D162  D(29,30,33,67)        176.7257         estimate D2E/DX2                !
 ! D163  D(29,30,33,68)         56.6783         estimate D2E/DX2                !
 ! D164  D(29,30,33,69)        -62.9832         estimate D2E/DX2                !
 ! D165  D(31,30,33,67)         -4.9046         estimate D2E/DX2                !
 ! D166  D(31,30,33,68)       -124.952          estimate D2E/DX2                !
 ! D167  D(31,30,33,69)        115.3865         estimate D2E/DX2                !
 ! D168  D(30,31,32,1)        -179.0951         estimate D2E/DX2                !
 ! D169  D(30,31,32,42)          1.2568         estimate D2E/DX2                !
 ! D170  D(34,31,32,1)           7.452          estimate D2E/DX2                !
 ! D171  D(34,31,32,42)       -172.1962         estimate D2E/DX2                !
 ! D172  D(30,31,34,35)        -95.8703         estimate D2E/DX2                !
 ! D173  D(30,31,34,70)        142.9413         estimate D2E/DX2                !
 ! D174  D(30,31,34,71)         25.4438         estimate D2E/DX2                !
 ! D175  D(32,31,34,35)         76.0554         estimate D2E/DX2                !
 ! D176  D(32,31,34,70)        -45.133          estimate D2E/DX2                !
 ! D177  D(32,31,34,71)       -162.6305         estimate D2E/DX2                !
 ! D178  D(1,32,42,29)         178.984          estimate D2E/DX2                !
 ! D179  D(1,32,42,43)          -0.6761         estimate D2E/DX2                !
 ! D180  D(31,32,42,29)         -1.3747         estimate D2E/DX2                !
 ! D181  D(31,32,42,43)        178.9652         estimate D2E/DX2                !
 ! D182  D(31,34,35,36)       -171.9013         estimate D2E/DX2                !
 ! D183  D(31,34,35,72)        -49.3815         estimate D2E/DX2                !
 ! D184  D(31,34,35,73)         66.8843         estimate D2E/DX2                !
 ! D185  D(70,34,35,36)        -49.3212         estimate D2E/DX2                !
 ! D186  D(70,34,35,72)         73.1986         estimate D2E/DX2                !
 ! D187  D(70,34,35,73)       -170.5356         estimate D2E/DX2                !
 ! D188  D(71,34,35,36)         65.5601         estimate D2E/DX2                !
 ! D189  D(71,34,35,72)       -171.9202         estimate D2E/DX2                !
 ! D190  D(71,34,35,73)        -55.6544         estimate D2E/DX2                !
 ! D191  D(34,35,36,37)        164.5373         estimate D2E/DX2                !
 ! D192  D(34,35,36,38)        -15.7849         estimate D2E/DX2                !
 ! D193  D(72,35,36,37)         40.692          estimate D2E/DX2                !
 ! D194  D(72,35,36,38)       -139.6302         estimate D2E/DX2                !
 ! D195  D(73,35,36,37)        -72.8632         estimate D2E/DX2                !
 ! D196  D(73,35,36,38)        106.8145         estimate D2E/DX2                !
 ! D197  D(35,36,37,75)        178.4203         estimate D2E/DX2                !
 ! D198  D(38,36,37,75)         -1.2736         estimate D2E/DX2                !
 ! D199  D(5,39,41,40)        -179.9999         Frozen                          !
 ! D200  D(5,39,41,42)           0.0001         Frozen                          !
 ! D201  D(8,39,41,40)           0.0001         Frozen                          !
 ! D202  D(8,39,41,42)        -179.9999         Frozen                          !
 ! D203  D(40,39,41,22)         -0.0001         Frozen                          !
 ! D204  D(40,39,41,25)        180.0            Frozen                          !
 ! D205  D(42,39,41,22)        179.9999         Frozen                          !
 ! D206  D(42,39,41,25)          0.0            Frozen                          !
 ! D207  D(5,39,43,40)         179.9358         estimate D2E/DX2                !
 ! D208  D(5,39,43,42)           0.4747         estimate D2E/DX2                !
 ! D209  D(5,39,43,95)         -87.0711         estimate D2E/DX2                !
 ! D210  D(5,39,43,96)          91.5578         estimate D2E/DX2                !
 ! D211  D(8,39,43,40)          -0.4738         estimate D2E/DX2                !
 ! D212  D(8,39,43,42)        -179.9349         estimate D2E/DX2                !
 ! D213  D(8,39,43,95)          92.5193         estimate D2E/DX2                !
 ! D214  D(8,39,43,96)         -88.8518         estimate D2E/DX2                !
 ! D215  D(15,40,42,39)          0.0            Frozen                          !
 ! D216  D(15,40,42,41)        179.9999         Frozen                          !
 ! D217  D(18,40,42,39)        179.9999         Frozen                          !
 ! D218  D(18,40,42,41)         -0.0001         Frozen                          !
 ! D219  D(39,40,42,29)       -180.0            Frozen                          !
 ! D220  D(39,40,42,32)          0.0            Frozen                          !
 ! D221  D(41,40,42,29)          0.0            Frozen                          !
 ! D222  D(41,40,42,32)       -180.0            Frozen                          !
 ! D223  D(15,40,43,39)          0.4734         estimate D2E/DX2                !
 ! D224  D(15,40,43,41)        179.9396         estimate D2E/DX2                !
 ! D225  D(15,40,43,95)        -88.6322         estimate D2E/DX2                !
 ! D226  D(15,40,43,96)         96.3497         estimate D2E/DX2                !
 ! D227  D(18,40,43,39)       -179.9417         estimate D2E/DX2                !
 ! D228  D(18,40,43,41)         -0.4754         estimate D2E/DX2                !
 ! D229  D(18,40,43,95)         90.9528         estimate D2E/DX2                !
 ! D230  D(18,40,43,96)        -84.0653         estimate D2E/DX2                !
 ! D231  D(22,41,43,40)          0.472          estimate D2E/DX2                !
 ! D232  D(22,41,43,42)        179.934          estimate D2E/DX2                !
 ! D233  D(22,41,43,95)        -92.5256         estimate D2E/DX2                !
 ! D234  D(22,41,43,96)         88.832          estimate D2E/DX2                !
 ! D235  D(25,41,43,40)       -179.938          estimate D2E/DX2                !
 ! D236  D(25,41,43,42)         -0.4761         estimate D2E/DX2                !
 ! D237  D(25,41,43,95)         87.0643         estimate D2E/DX2                !
 ! D238  D(25,41,43,96)        -91.578          estimate D2E/DX2                !
 ! D239  D(29,42,43,39)        179.9402         estimate D2E/DX2                !
 ! D240  D(29,42,43,41)          0.4726         estimate D2E/DX2                !
 ! D241  D(29,42,43,95)        -90.957          estimate D2E/DX2                !
 ! D242  D(29,42,43,96)         84.064          estimate D2E/DX2                !
 ! D243  D(32,42,43,39)         -0.4747         estimate D2E/DX2                !
 ! D244  D(32,42,43,41)       -179.9423         estimate D2E/DX2                !
 ! D245  D(32,42,43,95)         88.6281         estimate D2E/DX2                !
 ! D246  D(32,42,43,96)        -96.3508         estimate D2E/DX2                !
 ! D247  D(39,43,95,93)        172.0341         estimate D2E/DX2                !
 ! D248  D(39,43,95,94)          5.7005         estimate D2E/DX2                !
 ! D249  D(40,43,95,93)        -98.0678         estimate D2E/DX2                !
 ! D250  D(40,43,95,94)         95.5987         estimate D2E/DX2                !
 ! D251  D(41,43,95,93)         -7.7965         estimate D2E/DX2                !
 ! D252  D(41,43,95,94)       -174.1301         estimate D2E/DX2                !
 ! D253  D(42,43,95,93)         81.8553         estimate D2E/DX2                !
 ! D254  D(42,43,95,94)        -84.4783         estimate D2E/DX2                !
 ! D255  D(93,95,96,97)       -169.4113         estimate D2E/DX2                !
 ! D256  D(94,95,96,97)         25.2297         estimate D2E/DX2                !
 ! D257  D(39,43,96,97)         18.7752         estimate D2E/DX2                !
 ! D258  D(40,43,96,97)        -71.0038         estimate D2E/DX2                !
 ! D259  D(41,43,96,97)       -161.3825         estimate D2E/DX2                !
 ! D260  D(42,43,96,97)        109.0259         estimate D2E/DX2                !
 ! D261  D(104,76,77,78)        74.2501         estimate D2E/DX2                !
 ! D262  D(104,76,77,80)       -51.864          estimate D2E/DX2                !
 ! D263  D(104,76,77,103)     -172.994          estimate D2E/DX2                !
 ! D264  D(105,76,77,78)      -165.4442         estimate D2E/DX2                !
 ! D265  D(105,76,77,80)        68.4417         estimate D2E/DX2                !
 ! D266  D(105,76,77,103)      -52.6883         estimate D2E/DX2                !
 ! D267  D(76,77,78,79)       -140.518          estimate D2E/DX2                !
 ! D268  D(76,77,78,116)        37.9985         estimate D2E/DX2                !
 ! D269  D(80,77,78,79)        -10.3826         estimate D2E/DX2                !
 ! D270  D(80,77,78,116)       168.1339         estimate D2E/DX2                !
 ! D271  D(103,77,78,79)       105.8515         estimate D2E/DX2                !
 ! D272  D(103,77,78,116)      -75.632          estimate D2E/DX2                !
 ! D273  D(76,77,80,81)       -168.7806         estimate D2E/DX2                !
 ! D274  D(76,77,80,98)         69.0987         estimate D2E/DX2                !
 ! D275  D(76,77,80,99)        -46.0774         estimate D2E/DX2                !
 ! D276  D(78,77,80,81)         65.2608         estimate D2E/DX2                !
 ! D277  D(78,77,80,98)        -56.8599         estimate D2E/DX2                !
 ! D278  D(78,77,80,99)       -172.0359         estimate D2E/DX2                !
 ! D279  D(103,77,80,81)       -48.7678         estimate D2E/DX2                !
 ! D280  D(103,77,80,98)      -170.8886         estimate D2E/DX2                !
 ! D281  D(103,77,80,99)        73.9354         estimate D2E/DX2                !
 ! D282  D(77,78,116,117)      171.7824         estimate D2E/DX2                !
 ! D283  D(79,78,116,117)       -9.6579         estimate D2E/DX2                !
 ! D284  D(77,80,81,82)         82.4436         estimate D2E/DX2                !
 ! D285  D(77,80,81,83)        -94.259          estimate D2E/DX2                !
 ! D286  D(98,80,81,82)       -155.3088         estimate D2E/DX2                !
 ! D287  D(98,80,81,83)         27.9886         estimate D2E/DX2                !
 ! D288  D(99,80,81,82)        -39.0427         estimate D2E/DX2                !
 ! D289  D(99,80,81,83)        144.2547         estimate D2E/DX2                !
 ! D290  D(80,81,82,84)       -177.2309         estimate D2E/DX2                !
 ! D291  D(80,81,82,101)         5.4049         estimate D2E/DX2                !
 ! D292  D(83,81,82,84)          0.2581         estimate D2E/DX2                !
 ! D293  D(83,81,82,101)      -177.1062         estimate D2E/DX2                !
 ! D294  D(80,81,83,85)        177.3637         estimate D2E/DX2                !
 ! D295  D(80,81,83,100)         0.0637         estimate D2E/DX2                !
 ! D296  D(82,81,83,85)          0.2214         estimate D2E/DX2                !
 ! D297  D(82,81,83,100)      -177.0786         estimate D2E/DX2                !
 ! D298  D(81,82,84,85)         -0.6648         estimate D2E/DX2                !
 ! D299  D(81,82,84,102)       178.624          estimate D2E/DX2                !
 ! D300  D(101,82,84,85)       176.7418         estimate D2E/DX2                !
 ! D301  D(101,82,84,102)       -3.9694         estimate D2E/DX2                !
 ! D302  D(81,83,85,84)         -0.6337         estimate D2E/DX2                !
 ! D303  D(81,83,85,97)       -159.5473         estimate D2E/DX2                !
 ! D304  D(100,83,85,84)       176.9168         estimate D2E/DX2                !
 ! D305  D(100,83,85,97)        18.0031         estimate D2E/DX2                !
[...]
 Alpha virt. eigenvalues --    1.34965   1.35313   1.35743   1.35940   1.36668
 Alpha virt. eigenvalues --    1.36789   1.37179   1.38083   1.38156   1.38482
 Alpha virt. eigenvalues --    1.38857   1.39188   1.39706   1.40386   1.40850
 Alpha virt. eigenvalues --    1.41239   1.41530   1.41907   1.42510   1.42666
 Alpha virt. eigenvalues --    1.42821   1.43167   1.43247   1.43846   1.44569
 Alpha virt. eigenvalues --    1.45187   1.46237   1.46365   1.46546   1.47126
 Alpha virt. eigenvalues --    1.47636   1.47775   1.48230   1.49446   1.49722
 Alpha virt. eigenvalues --    1.50190   1.50715   1.51776   1.52351   1.52622
 Alpha virt. eigenvalues --    1.53039   1.53100   1.53470   1.53956   1.54546
 Alpha virt. eigenvalues --    1.54873   1.55215   1.55490   1.56258   1.56552
 Alpha virt. eigenvalues --    1.56747   1.57118   1.57252   1.57364   1.57985
 Alpha virt. eigenvalues --    1.58634   1.59071   1.59734   1.59851   1.60074
 Alpha virt. eigenvalues --    1.60753   1.61398   1.61931   1.62736   1.63359
 Alpha virt. eigenvalues --    1.63473   1.63960   1.64752   1.65303   1.66365
 Alpha virt. eigenvalues --    1.66560   1.66673   1.67147   1.67875   1.68535
 Alpha virt. eigenvalues --    1.69093   1.69410   1.70026   1.70335   1.71124
 Alpha virt. eigenvalues --    1.71543   1.71886   1.72094   1.72229   1.72819
 Alpha virt. eigenvalues --    1.72970   1.73449   1.73587   1.73979   1.74262
 Alpha virt. eigenvalues --    1.74585   1.75093   1.75228   1.75266   1.75597
 Alpha virt. eigenvalues --    1.76419   1.76830   1.77270   1.77837   1.78100
 Alpha virt. eigenvalues --    1.78780   1.79166   1.79506   1.79707   1.80082
 Alpha virt. eigenvalues --    1.80536   1.81220   1.81255   1.81675   1.82120
 Alpha virt. eigenvalues --    1.82561   1.82935   1.83278   1.83291   1.83920
 Alpha virt. eigenvalues --    1.84203   1.84709   1.84911   1.85287   1.85416
 Alpha virt. eigenvalues --    1.85700   1.85814   1.86108   1.86278   1.86540
 Alpha virt. eigenvalues --    1.86906   1.87165   1.87324   1.87425   1.87606
 Alpha virt. eigenvalues --    1.87713   1.88114   1.88365   1.88598   1.88841
 Alpha virt. eigenvalues --    1.89570   1.89713   1.90976   1.91158   1.91826
 Alpha virt. eigenvalues --    1.91943   1.92173   1.92467   1.92676   1.93032
 Alpha virt. eigenvalues --    1.93295   1.93603   1.93796   1.94136   1.94469
 Alpha virt. eigenvalues --    1.94603   1.95277   1.95418   1.95816   1.96040
 Alpha virt. eigenvalues --    1.96709   1.97006   1.97373   1.98042   1.98307
 Alpha virt. eigenvalues --    1.98424   1.98819   1.99243   1.99529   1.99706
 Alpha virt. eigenvalues --    2.00416   2.00612   2.01157   2.01507   2.01722
 Alpha virt. eigenvalues --    2.02044   2.02418   2.02616   2.03846   2.04163
 Alpha virt. eigenvalues --    2.04487   2.04575   2.04799   2.04867   2.05070
 Alpha virt. eigenvalues --    2.05163   2.05507   2.05659   2.05887   2.06036
 Alpha virt. eigenvalues --    2.06328   2.06854   2.07133   2.07157   2.07909
 Alpha virt. eigenvalues --    2.07931   2.08161   2.08261   2.08883   2.09099
 Alpha virt. eigenvalues --    2.09325   2.09704   2.10013   2.10259   2.10330
 Alpha virt. eigenvalues --    2.10698   2.11164   2.11395   2.11628   2.12128
 Alpha virt. eigenvalues --    2.12331   2.12931   2.13170   2.13453   2.14572
 Alpha virt. eigenvalues --    2.15403   2.15424   2.15896   2.16005   2.16329
 Alpha virt. eigenvalues --    2.16654   2.16792   2.17259   2.17537   2.17946
 Alpha virt. eigenvalues --    2.18180   2.18329   2.18701   2.18935   2.19279
 Alpha virt. eigenvalues --    2.19427   2.19602   2.19972   2.20107   2.20248
 Alpha virt. eigenvalues --    2.20620   2.20849   2.21297   2.21558   2.22078
 Alpha virt. eigenvalues --    2.22386   2.22534   2.23018   2.23593   2.24389
 Alpha virt. eigenvalues --    2.24563   2.25109   2.25161   2.25314   2.25959
 Alpha virt. eigenvalues --    2.26436   2.27365   2.27531   2.27841   2.27914
 Alpha virt. eigenvalues --    2.28319   2.28853   2.28999   2.29234   2.29830
 Alpha virt. eigenvalues --    2.29963   2.30578   2.30849   2.31227   2.31606
 Alpha virt. eigenvalues --    2.32092   2.32311   2.32831   2.33011   2.33380
 Alpha virt. eigenvalues --    2.34080   2.34329   2.34892   2.35231   2.35741
 Alpha virt. eigenvalues --    2.35845   2.36277   2.37137   2.37429   2.37801
 Alpha virt. eigenvalues --    2.38571   2.38971   2.39550   2.40209   2.40935
 Alpha virt. eigenvalues --    2.41232   2.41785   2.42335   2.42477   2.43017
 Alpha virt. eigenvalues --    2.43467   2.43524   2.43948   2.44209   2.44256
 Alpha virt. eigenvalues --    2.44444   2.44860   2.44944   2.45301   2.45707
 Alpha virt. eigenvalues --    2.46111   2.46221   2.46402   2.46571   2.47266
 Alpha virt. eigenvalues --    2.48372   2.48564   2.48987   2.49110   2.49516
 Alpha virt. eigenvalues --    2.49730   2.50360   2.50854   2.51593   2.51646
 Alpha virt. eigenvalues --    2.51814   2.52407   2.52596   2.52762   2.52884
 Alpha virt. eigenvalues --    2.53777   2.53792   2.54081   2.54395   2.54668
 Alpha virt. eigenvalues --    2.55175   2.55387   2.55753   2.55834   2.56248
 Alpha virt. eigenvalues --    2.56868   2.57332   2.57876   2.58212   2.58665
 Alpha virt. eigenvalues --    2.59668   2.59937   2.60188   2.60572   2.61016
 Alpha virt. eigenvalues --    2.61496   2.61876   2.61965   2.62431   2.62640
 Alpha virt. eigenvalues --    2.62930   2.63702   2.64242   2.64429   2.64723
 Alpha virt. eigenvalues --    2.64914   2.65197   2.65520   2.65706   2.66185
 Alpha virt. eigenvalues --    2.66508   2.66822   2.67353   2.67765   2.68112
 Alpha virt. eigenvalues --    2.68677   2.69108   2.69697   2.69831   2.70269
 Alpha virt. eigenvalues --    2.70529   2.70905   2.71053   2.71236   2.71433
 Alpha virt. eigenvalues --    2.71693   2.71900   2.72392   2.72466   2.72633
 Alpha virt. eigenvalues --    2.73576   2.74012   2.74085   2.74347   2.74573
 Alpha virt. eigenvalues --    2.74976   2.75212   2.75513   2.76008   2.76513
 Alpha virt. eigenvalues --    2.77182   2.78050   2.78587   2.78830   2.79454
 Alpha virt. eigenvalues --    2.80246   2.80878   2.81280   2.81877   2.82245
 Alpha virt. eigenvalues --    2.82898   2.83110   2.83461   2.84263   2.84718
 Alpha virt. eigenvalues --    2.84839   2.85355   2.85707   2.86411   2.87090
 Alpha virt. eigenvalues --    2.87192   2.87431   2.87738   2.87985   2.88138
 Alpha virt. eigenvalues --    2.88922   2.89335   2.90126   2.90626   2.91002
 Alpha virt. eigenvalues --    2.91204   2.91851   2.92390   2.92548   2.93381
 Alpha virt. eigenvalues --    2.93658   2.94083   2.94318   2.95687   2.96195
 Alpha virt. eigenvalues --    2.96383   2.97402   2.97762   2.98586   2.99034
 Alpha virt. eigenvalues --    2.99131   3.00163   3.00588   3.00912   3.01257
 Alpha virt. eigenvalues --    3.01860   3.02283   3.02584   3.02953   3.03628
 Alpha virt. eigenvalues --    3.03874   3.05171   3.05442   3.06848   3.07466
 Alpha virt. eigenvalues --    3.08560   3.09258   3.10626   3.11308   3.12723
 Alpha virt. eigenvalues --    3.13057   3.17329   3.17702   3.18332   3.18882
 Alpha virt. eigenvalues --    3.19290   3.20837   3.21243   3.21386   3.22520
 Alpha virt. eigenvalues --    3.23854   3.25022   3.25126   3.25378   3.25682
 Alpha virt. eigenvalues --    3.25991   3.27039   3.27136   3.27937   3.28587
 Alpha virt. eigenvalues --    3.29111   3.29723   3.30948   3.31336   3.31456
 Alpha virt. eigenvalues --    3.32351   3.32799   3.33703   3.35350   3.37432
 Alpha virt. eigenvalues --    3.39201   3.40505   3.40898   3.41975   3.42331
 Alpha virt. eigenvalues --    3.43941   3.44287   3.44644   3.45230   3.45901
 Alpha virt. eigenvalues --    3.46893   3.47193   3.47394   3.47805   3.48240
 Alpha virt. eigenvalues --    3.48407   3.48577   3.48821   3.49340   3.49850
 Alpha virt. eigenvalues --    3.50586   3.50843   3.55343   3.56514   3.61444
 Alpha virt. eigenvalues --    3.61964   3.63337   3.64146   3.64955   3.65577
 Alpha virt. eigenvalues --    3.70926   3.71619   3.77411   3.80346  14.77103
          Condensed to atoms (all electrons):
 Mulliken atomic charges:
              1
     1  C   -0.272416
     2  C   -0.218040
     3  C   -0.210167
     4  C   -0.215971
     5  C    0.242356
     6  C   -0.003594
     7  C    0.038863
     8  C    0.267598
     9  C   -0.379438
    10  C   -0.228885
    11  C   -0.253663
    12  C    0.529489
    13  O   -0.482129
    14  O   -0.432142
    15  C    0.278316
    16  C    0.036394
    17  C    0.023112
    18  C    0.277812
    19  C   -0.374092
    20  C   -0.091988
    21  C   -0.247723
    22  C    0.272078
    23  C    0.035726
    24  C    0.023677
    25  C    0.269601
    26  C   -0.382404
    27  C   -0.079466
    28  C   -0.252863
    29  C    0.274060
    30  C    0.041207
    31  C    0.008777
    32  C    0.284319
    33  C   -0.380495
    34  C   -0.236915
    35  C   -0.247596
    36  C    0.527372
    37  O   -0.492588
    38  O   -0.426443
    39  N   -0.543738
    40  N   -0.537753
    41  N   -0.546966
    42  N   -0.526620
    43  Fe   0.459228
    44  H    0.062163
    45  H    0.067305
    46  H    0.077152
    47  H    0.069504
    48  H    0.100917
    49  H    0.115123
    50  H    0.120731
    51  H    0.102980
    52  H    0.108680
    53  H    0.141872
    54  H    0.135711
    55  H    0.115149
    56  H    0.115512
    57  H    0.104519
    58  H    0.084409
    59  H    0.100716
    60  H    0.088386
    61  H    0.117311
    62  H    0.112330
    63  H    0.114850
    64  H    0.083920
    65  H    0.094301
    66  H    0.087929
    67  H    0.101699
    68  H    0.117031
    69  H    0.118735
    70  H    0.111249
    71  H    0.113022
    72  H    0.120857
    73  H    0.144744
    74  H    0.320956
    75  H    0.319811
    76  N   -0.566601
    77  C   -0.019120
    78  C    0.230218
    79  O   -0.360559
    80  C   -0.242572
    81  C    0.237138
    82  N   -0.507285
    83  C    0.058089
    84  C    0.300509
    85  N   -0.288598
    86  N   -0.600012
    87  C   -0.019967
    88  C    0.223175
    89  O   -0.366076
    90  C   -0.231119
    91  C    0.237584
    92  N   -0.491680
    93  C    0.020389
    94  C    0.282850
    95  N   -0.385760
    96  O   -0.155377
    97  O   -0.059847
    98  H    0.134296
    99  H    0.102520
   100  H    0.141244
   101  H    0.278629
   102  H    0.152703
   103  H    0.136009
   104  H    0.254765
   105  H    0.253208
   106  H    0.153356
   107  H    0.115022
   108  H    0.128212
   109  H    0.278012
   110  H    0.141024
   111  H    0.164230
   112  H    0.271549
   113  H    0.261849
   114  S   -0.058915
   115  H    0.093142
   116  S    0.011943
   117  H    0.076363
 Sum of Mulliken atomic charges =   0.00000
 Mulliken charges with hydrogens summed into heavy atoms:
              1
     1  C   -0.210253
     2  C   -0.150734
     3  C   -0.133015
     4  C   -0.146467
     5  C    0.242356
     6  C   -0.003594
     7  C    0.038863
     8  C    0.267598
     9  C   -0.042667
    10  C   -0.017225
    11  C    0.023920
    12  C    0.529489
    13  O   -0.161173
    14  O   -0.432142
    15  C    0.278316
    16  C    0.036394
    17  C    0.023112
    18  C    0.277812
    19  C   -0.038912
    20  C   -0.007579
    21  C   -0.058621
    22  C    0.272078
    23  C    0.035726
    24  C    0.023677
    25  C    0.269601
    26  C   -0.037913
    27  C    0.004454
    28  C   -0.070633
    29  C    0.274060
    30  C    0.041207
    31  C    0.008777
    32  C    0.284319
    33  C   -0.043031
    34  C   -0.012644
    35  C    0.018005
    36  C    0.527372
    37  O   -0.172778
    38  O   -0.426443
    39  N   -0.543738
    40  N   -0.537753
    41  N   -0.546966
    42  N   -0.526620
    43  Fe   0.459228
    76  N   -0.058628
    77  C    0.116890
    78  C    0.230218
    79  O   -0.360559
    80  C   -0.005756
    81  C    0.237138
    82  N   -0.228656
    83  C    0.199333
    84  C    0.453211
    85  N   -0.288598
    86  N   -0.066614
    87  C    0.144263
    88  C    0.223175
    89  O   -0.366076
    90  C    0.037259
    91  C    0.237584
    92  N   -0.213669
    93  C    0.148601
    94  C    0.423874
    95  N   -0.385760
    96  O   -0.155377
    97  O   -0.059847
   114  S    0.034227
   116  S    0.088306
 Sum of Mulliken charges with hydrogens summed into heavy atoms =   0.00000
 Electronic spatial extent (au):  <R**2>=          64439.3887
 Charge=              0.0000 electrons
 Dipole moment (field-independent basis, Debye):
    X=              6.4517    Y=             -4.1658    Z=              0.5967  Tot=              7.7029
 Quadrupole moment (field-independent basis, Debye-Ang):
   XX=           -393.5610   YY=           -387.6062   ZZ=           -328.0910
   XY=            -11.4193   XZ=             10.8887   YZ=            -32.9290
 Traceless Quadrupole moment (field-independent basis, Debye-Ang):
   XX=            -23.8082   YY=            -17.8535   ZZ=             41.6618
   XY=            -11.4193   XZ=             10.8887   YZ=            -32.9290
 Octapole moment (field-independent basis, Debye-Ang**2):
  XXX=          -1003.0066  YYY=           1242.2495  ZZZ=           -340.0724  XYY=           -316.4079
  XXY=            367.6393  XXZ=           -145.9571  XZZ=           -105.3404  YZZ=             42.0378
  YYZ=             49.2273  XYZ=           -126.7789
 Hexadecapole moment (field-independent basis, Debye-Ang**3):
 XXXX=         -24836.4211 YYYY=         -21824.7912 ZZZZ=         -33873.4531 XXXY=           2973.4213
 XXXZ=          -6126.2774 YYYX=           3367.7366 YYYZ=          -1285.5972 ZZZX=          -5090.8690
 ZZZY=          -2238.6758 XXYY=          -7245.0647 XXZZ=         -10219.0389 YYZZ=          -8452.7312
 XXYZ=           -614.1966 YYXZ=          -1004.6181 ZZXY=           -192.3273
 N-N= 1.175069442449D+04 E-N=-3.252142615130D+04  KE= 3.777872016361D+03
 Leave Link  601 at Sun Nov 29 10:03:48 2015, MaxMem= 4026531840 cpu:       4.0
 (Enter /usr1/jkzhou/ycliu2/bin/fluxbrane_g09/g09/l9999.exe)
 1\1\GINC-HPCA04168\FOpt\RB3LYP\GenECP\C46H50Fe1N10O8S2\JKZHOU\29-Nov-2
 015\0\\#p opt=(modredundant,maxcycle=500) b3lyp/genecp nosymm scf=(qc,
 conver=6,novaracc) geom=connectivity int=ultrafine\\heme_2his_oo\\0,1\
 C,2.3514494376,-2.6047116635,0.1005823381\C,2.3727091826,2.177709622,0
 .6906711176\C,-2.4386182984,2.2310591428,0.3658598439\C,-2.4602659635,
 -2.5451291409,-0.2420019576\C,2.7815429546,-1.2979128417,0.3058853835\
 C,4.1776141992,-0.9046430488,0.4162592951\C,4.1806704332,0.4532940561,
 0.5911661814\C,2.7897805688,0.8645172826,0.5660447308\C,5.3510260981,1
 .3761749889,0.7579958445\C,5.3502580744,-1.8174872765,0.2079671581\C,5
 .622074017,-2.0258168304,-1.2916374102\C,6.7543129985,-2.9816699867,-1
 .5685129391\O,7.0005853909,-3.0953034356,-2.8984375744\O,7.3890292432,
 -3.5961281709,-0.7381177251\C,1.0518861501,2.5987227487,0.6460664275\C
 ,0.6633519369,3.9849194725,0.8012495742\C,-0.7020586438,4.0173712367,0
 .6785928249\C,-1.1175892147,2.6275616477,0.4895799474\C,1.6084577352,5
 .1299809972,1.0061842373\C,-1.5384726603,5.2164121824,0.7272684912\C,-
 2.6325536752,5.4861071176,-0.0008731827\C,-2.866512727,0.9290546726,0.
 1567916959\C,-4.2598404976,0.5576013369,0.0128034367\C,-4.2728031403,-
 0.8070544732,-0.163671795\C,-2.8778506201,-1.2296780535,-0.1031477645\
 C,-5.4241308745,1.4958537691,0.1023083653\C,-5.4030873111,-1.713966226
 8,-0.3274269953\C,-6.5943699127,-1.4336973414,-0.8800739632\C,-1.14384
 4809,-2.9683391795,-0.1839920414\C,-0.7519155712,-4.3637947716,-0.3007
 301959\C,0.6086963332,-4.3824409434,-0.1958697039\C,1.0244573395,-2.99
 70565467,-0.0275816881\C,-1.6978424029,-5.5144157688,-0.4715454653\C,1
 .5286776641,-5.5631983091,-0.1147391128\C,1.9002925559,-5.8674062431,1
 .3470202625\C,2.9403009374,-6.9472078898,1.4854178664\O,3.4508875373,-
 6.9979938418,2.7467828395\O,3.3067117897,-7.7055373575,0.6147058352\N,
 1.9511580178,-0.2085611707,0.3754215152\N,-0.0377953782,1.7801696932,0
 .4674830175\N,-2.0375464834,-0.1658601108,0.0864858013\N,-0.0534409431
 ,-2.1508248434,-0.0054826709\Fe,-0.0406238316,-0.1811792463,0.19635869
 35\H,3.1101587109,-3.3778677562,0.0367165045\H,3.1342753479,2.93527037
 46,0.8396428479\H,-3.1938288659,3.0010353189,0.4460750429\H,-3.2189917
 471,-3.3009411382,-0.4079877675\H,6.2937553705,0.8235699108,0.80277362
 41\H,5.4295588603,2.0923656918,-0.0695623767\H,5.2716501981,1.96481262
 54,1.679712368\H,5.1901491129,-2.7960647879,0.6739998331\H,6.250105889
 1,-1.4095084931,0.679231803\H,4.7265360246,-2.4090048595,-1.7957202621
 \H,5.8491644941,-1.0721510061,-1.7825335444\H,2.2437826374,4.978263839
 ,1.8871089713\H,2.2780128746,5.262956684,0.1468680768\H,1.0698731622,6
 .070999994,1.1426930352\H,-1.1968278183,5.987957467,1.4184098834\H,-3.
 0139256217,4.8037395946,-0.753423789\H,-3.1660739785,6.4235629467,0.12
 38942897\H,-6.3173576121,0.9670267388,0.4478504772\H,-5.6711256707,1.9
 479163679,-0.8678444372\H,-5.2278159449,2.3163222315,0.7991683489\H,-5
 .2518423247,-2.7266494745,0.045967425\H,-6.8221467939,-0.467110342,-1.
 316775883\H,-7.3761651562,-2.1855967181,-0.927839501\H,-1.1600866341,-
 6.4587777265,-0.594038893\H,-2.3379801615,-5.3857346103,-1.3526552546\
 H,-2.3650349366,-5.6251013501,0.3923472944\H,2.4480936997,-5.390655980
 2,-0.6859180851\H,1.0688946348,-6.4513067738,-0.5578933148\H,2.2627070
 479,-4.9679889289,1.8546288551\H,1.0122258336,-6.1797639971,1.91128347
 29\H,7.7310372598,-3.7312653812,-2.9817543543\H,4.0881465394,-7.732333
 4284,2.7409996096\N,4.4596591589,-2.0181239123,9.0749290991\C,3.850752
 3878,-1.6377708356,7.7876041209\C,3.3766726973,-0.1671198395,7.8549457
 056\O,2.333767404,0.2470367585,7.4177315144\C,2.7018327516,-2.54417598
 55,7.2487762242\C,2.262045646,-2.2533578219,5.8394516415\N,2.928244876
 2,-2.7353285948,4.7153834511\C,1.2479423365,-1.4760763393,5.3314914974
 \C,2.3210649319,-2.2460344443,3.6016285361\N,1.2985622356,-1.495291174
 9,3.9632848637\N,0.8953413659,-1.6219676045,-6.4873349052\C,-0.4857124
 662,-1.6687616897,-6.0709953258\C,-1.4326794181,-1.9309725073,-7.23034
 72667\O,-2.6243285107,-1.7587188038,-7.1801219491\C,-0.9311612697,-0.3
 864265394,-5.3241198791\C,-0.3155794476,-0.24380654,-3.9722872151\N,1.
 0523072617,-0.2326119686,-3.7751169968\C,-0.85809651,-0.1133936056,-2.
 7181276515\C,1.2861179686,-0.1181699582,-2.4444295251\N,0.147095621,-0
 .0441980222,-1.7699569728\O,-0.4039657506,-0.3881564816,2.2543051504\O
 ,0.479050002,-0.1228136273,3.135813873\H,1.8345580023,-2.4431346759,7.
 9087637758\H,3.0373880885,-3.5863903785,7.327655043\H,0.5194220675,-0.
 8798527399,5.8562214289\H,3.7108810398,-3.3740761307,4.7140667997\H,2.
 6332699768,-2.4361630342,2.5853880224\H,4.6663545723,-1.6387493579,7.0
 514034276\H,3.7506611775,-2.1443731973,9.7929496543\H,4.9763976518,-2.
 8873934472,8.9858325958\H,-2.0176656846,-0.4158368598,-5.2210012152\H,
 -0.6979496478,0.479206734,-5.9613335795\H,-1.8964708969,-0.0754703524,
 -2.4336627335\H,1.720376573,-0.4408997647,-4.5056527228\H,2.2703657664
 ,-0.1071920499,-2.0098453713\H,-0.6098072321,-2.5185986846,-5.38703132
 9\H,1.2756515105,-2.5340327023,-6.7135562365\H,1.0432245179,-0.9985947
 425,-7.2750982763\S,-0.6236747886,-2.5728833845,-8.7503265818\H,-1.802
 436619,-2.7298749028,-9.3823458395\S,4.5679085676,0.8966103356,8.72815
 14317\H,3.9046871633,2.0206249681,8.3856244667\\Version=EM64T-G09RevA.
 02\HF=-3852.0965629\RMSD=0.000e+00\RMSF=3.646e-03\Dipole=2.538307,-1.6
 389445,0.2347741\Quadrupole=-17.7008457,-13.2736605,30.9745061,-8.4899
 883,8.095471,-24.4818746\PG=C01 [X(C46H50Fe1N10O8S2)]\\@


 WE DON'T KNOW ONE MILLIONTH OF ONE PERCENT ABOUT
 ANYTHING.
                                     T. A. EDISON.
 Job cpu time:  7 days 16 hours 15 minutes 24.0 seconds.
 File lengths (MBytes):  RWF=    595 Int=      0 D2E=      0 Chk=     91 Scr=      1
 Normal termination of Gaussian 09 at Sun Nov 29 10:03:49 2015.
